<VTKFile type='UnstructuredGrid' version='0.1' byte_order='BigEndian'> 
<UnstructuredGrid> 
<Piece NumberOfPoints=' 10251 ' NumberOfCells='  2500 '> 
<Points> 
<DataArray type='Float32' NumberOfComponents='3' Format='ascii'> 
0.000000e+00 0.000000e+00 0.000000e+00 
6.250000e+02 0.000000e+00 0.000000e+00 
1.250000e+03 0.000000e+00 0.000000e+00 
1.875000e+03 0.000000e+00 0.000000e+00 
2.500000e+03 0.000000e+00 0.000000e+00 
3.125000e+03 0.000000e+00 0.000000e+00 
3.750000e+03 0.000000e+00 0.000000e+00 
4.375000e+03 0.000000e+00 0.000000e+00 
5.000000e+03 0.000000e+00 0.000000e+00 
5.625000e+03 0.000000e+00 0.000000e+00 
6.250000e+03 0.000000e+00 0.000000e+00 
6.875000e+03 0.000000e+00 0.000000e+00 
7.500000e+03 0.000000e+00 0.000000e+00 
8.125000e+03 0.000000e+00 0.000000e+00 
8.750000e+03 0.000000e+00 0.000000e+00 
9.375000e+03 0.000000e+00 0.000000e+00 
1.000000e+04 0.000000e+00 0.000000e+00 
1.062500e+04 0.000000e+00 0.000000e+00 
1.125000e+04 0.000000e+00 0.000000e+00 
1.187500e+04 0.000000e+00 0.000000e+00 
1.250000e+04 0.000000e+00 0.000000e+00 
1.312500e+04 0.000000e+00 0.000000e+00 
1.375000e+04 0.000000e+00 0.000000e+00 
1.437500e+04 0.000000e+00 0.000000e+00 
1.500000e+04 0.000000e+00 0.000000e+00 
1.562500e+04 0.000000e+00 0.000000e+00 
1.625000e+04 0.000000e+00 0.000000e+00 
1.687500e+04 0.000000e+00 0.000000e+00 
1.750000e+04 0.000000e+00 0.000000e+00 
1.812500e+04 0.000000e+00 0.000000e+00 
1.875000e+04 0.000000e+00 0.000000e+00 
1.937500e+04 0.000000e+00 0.000000e+00 
2.000000e+04 0.000000e+00 0.000000e+00 
2.062500e+04 0.000000e+00 0.000000e+00 
2.125000e+04 0.000000e+00 0.000000e+00 
2.187500e+04 0.000000e+00 0.000000e+00 
2.250000e+04 0.000000e+00 0.000000e+00 
2.312500e+04 0.000000e+00 0.000000e+00 
2.375000e+04 0.000000e+00 0.000000e+00 
2.437500e+04 0.000000e+00 0.000000e+00 
2.500000e+04 0.000000e+00 0.000000e+00 
2.562500e+04 0.000000e+00 0.000000e+00 
2.625000e+04 0.000000e+00 0.000000e+00 
2.687500e+04 0.000000e+00 0.000000e+00 
2.750000e+04 0.000000e+00 0.000000e+00 
2.812500e+04 0.000000e+00 0.000000e+00 
2.875000e+04 0.000000e+00 0.000000e+00 
2.937500e+04 0.000000e+00 0.000000e+00 
3.000000e+04 0.000000e+00 0.000000e+00 
3.062500e+04 0.000000e+00 0.000000e+00 
3.125000e+04 0.000000e+00 0.000000e+00 
3.187500e+04 0.000000e+00 0.000000e+00 
3.250000e+04 0.000000e+00 0.000000e+00 
3.312500e+04 0.000000e+00 0.000000e+00 
3.375000e+04 0.000000e+00 0.000000e+00 
3.437500e+04 0.000000e+00 0.000000e+00 
3.500000e+04 0.000000e+00 0.000000e+00 
3.562500e+04 0.000000e+00 0.000000e+00 
3.625000e+04 0.000000e+00 0.000000e+00 
3.687500e+04 0.000000e+00 0.000000e+00 
3.750000e+04 0.000000e+00 0.000000e+00 
3.812500e+04 0.000000e+00 0.000000e+00 
3.875000e+04 0.000000e+00 0.000000e+00 
3.937500e+04 0.000000e+00 0.000000e+00 
4.000000e+04 0.000000e+00 0.000000e+00 
4.062500e+04 0.000000e+00 0.000000e+00 
4.125000e+04 0.000000e+00 0.000000e+00 
4.187500e+04 0.000000e+00 0.000000e+00 
4.250000e+04 0.000000e+00 0.000000e+00 
4.312500e+04 0.000000e+00 0.000000e+00 
4.375000e+04 0.000000e+00 0.000000e+00 
4.437500e+04 0.000000e+00 0.000000e+00 
4.500000e+04 0.000000e+00 0.000000e+00 
4.562500e+04 0.000000e+00 0.000000e+00 
4.625000e+04 0.000000e+00 0.000000e+00 
4.687500e+04 0.000000e+00 0.000000e+00 
4.750000e+04 0.000000e+00 0.000000e+00 
4.812500e+04 0.000000e+00 0.000000e+00 
4.875000e+04 0.000000e+00 0.000000e+00 
4.937500e+04 0.000000e+00 0.000000e+00 
5.000000e+04 0.000000e+00 0.000000e+00 
5.062500e+04 0.000000e+00 0.000000e+00 
5.125000e+04 0.000000e+00 0.000000e+00 
5.187500e+04 0.000000e+00 0.000000e+00 
5.250000e+04 0.000000e+00 0.000000e+00 
5.312500e+04 0.000000e+00 0.000000e+00 
5.375000e+04 0.000000e+00 0.000000e+00 
5.437500e+04 0.000000e+00 0.000000e+00 
5.500000e+04 0.000000e+00 0.000000e+00 
5.562500e+04 0.000000e+00 0.000000e+00 
5.625000e+04 0.000000e+00 0.000000e+00 
5.687500e+04 0.000000e+00 0.000000e+00 
5.750000e+04 0.000000e+00 0.000000e+00 
5.812500e+04 0.000000e+00 0.000000e+00 
5.875000e+04 0.000000e+00 0.000000e+00 
5.937500e+04 0.000000e+00 0.000000e+00 
6.000000e+04 0.000000e+00 0.000000e+00 
6.062500e+04 0.000000e+00 0.000000e+00 
6.125000e+04 0.000000e+00 0.000000e+00 
6.187500e+04 0.000000e+00 0.000000e+00 
6.250000e+04 0.000000e+00 0.000000e+00 
6.312500e+04 0.000000e+00 0.000000e+00 
6.375000e+04 0.000000e+00 0.000000e+00 
6.437500e+04 0.000000e+00 0.000000e+00 
6.500000e+04 0.000000e+00 0.000000e+00 
6.562500e+04 0.000000e+00 0.000000e+00 
6.625000e+04 0.000000e+00 0.000000e+00 
6.687500e+04 0.000000e+00 0.000000e+00 
6.750000e+04 0.000000e+00 0.000000e+00 
6.812500e+04 0.000000e+00 0.000000e+00 
6.875000e+04 0.000000e+00 0.000000e+00 
6.937500e+04 0.000000e+00 0.000000e+00 
7.000000e+04 0.000000e+00 0.000000e+00 
7.062500e+04 0.000000e+00 0.000000e+00 
7.125000e+04 0.000000e+00 0.000000e+00 
7.187500e+04 0.000000e+00 0.000000e+00 
7.250000e+04 0.000000e+00 0.000000e+00 
7.312500e+04 0.000000e+00 0.000000e+00 
7.375000e+04 0.000000e+00 0.000000e+00 
7.437500e+04 0.000000e+00 0.000000e+00 
7.500000e+04 0.000000e+00 0.000000e+00 
7.562500e+04 0.000000e+00 0.000000e+00 
7.625000e+04 0.000000e+00 0.000000e+00 
7.687500e+04 0.000000e+00 0.000000e+00 
7.750000e+04 0.000000e+00 0.000000e+00 
7.812500e+04 0.000000e+00 0.000000e+00 
7.875000e+04 0.000000e+00 0.000000e+00 
7.937500e+04 0.000000e+00 0.000000e+00 
8.000000e+04 0.000000e+00 0.000000e+00 
8.062500e+04 0.000000e+00 0.000000e+00 
8.125000e+04 0.000000e+00 0.000000e+00 
8.187500e+04 0.000000e+00 0.000000e+00 
8.250000e+04 0.000000e+00 0.000000e+00 
8.312500e+04 0.000000e+00 0.000000e+00 
8.375000e+04 0.000000e+00 0.000000e+00 
8.437500e+04 0.000000e+00 0.000000e+00 
8.500000e+04 0.000000e+00 0.000000e+00 
8.562500e+04 0.000000e+00 0.000000e+00 
8.625000e+04 0.000000e+00 0.000000e+00 
8.687500e+04 0.000000e+00 0.000000e+00 
8.750000e+04 0.000000e+00 0.000000e+00 
8.812500e+04 0.000000e+00 0.000000e+00 
8.875000e+04 0.000000e+00 0.000000e+00 
8.937500e+04 0.000000e+00 0.000000e+00 
9.000000e+04 0.000000e+00 0.000000e+00 
9.062500e+04 0.000000e+00 0.000000e+00 
9.125000e+04 0.000000e+00 0.000000e+00 
9.187500e+04 0.000000e+00 0.000000e+00 
9.250000e+04 0.000000e+00 0.000000e+00 
9.312500e+04 0.000000e+00 0.000000e+00 
9.375000e+04 0.000000e+00 0.000000e+00 
9.437500e+04 0.000000e+00 0.000000e+00 
9.500000e+04 0.000000e+00 0.000000e+00 
9.562500e+04 0.000000e+00 0.000000e+00 
9.625000e+04 0.000000e+00 0.000000e+00 
9.687500e+04 0.000000e+00 0.000000e+00 
9.750000e+04 0.000000e+00 0.000000e+00 
9.812500e+04 0.000000e+00 0.000000e+00 
9.875000e+04 0.000000e+00 0.000000e+00 
9.937500e+04 0.000000e+00 0.000000e+00 
1.000000e+05 0.000000e+00 0.000000e+00 
1.006250e+05 0.000000e+00 0.000000e+00 
1.012500e+05 0.000000e+00 0.000000e+00 
1.018750e+05 0.000000e+00 0.000000e+00 
1.025000e+05 0.000000e+00 0.000000e+00 
1.031250e+05 0.000000e+00 0.000000e+00 
1.037500e+05 0.000000e+00 0.000000e+00 
1.043750e+05 0.000000e+00 0.000000e+00 
1.050000e+05 0.000000e+00 0.000000e+00 
1.056250e+05 0.000000e+00 0.000000e+00 
1.062500e+05 0.000000e+00 0.000000e+00 
1.068750e+05 0.000000e+00 0.000000e+00 
1.075000e+05 0.000000e+00 0.000000e+00 
1.081250e+05 0.000000e+00 0.000000e+00 
1.087500e+05 0.000000e+00 0.000000e+00 
1.093750e+05 0.000000e+00 0.000000e+00 
1.100000e+05 0.000000e+00 0.000000e+00 
1.106250e+05 0.000000e+00 0.000000e+00 
1.112500e+05 0.000000e+00 0.000000e+00 
1.118750e+05 0.000000e+00 0.000000e+00 
1.125000e+05 0.000000e+00 0.000000e+00 
1.131250e+05 0.000000e+00 0.000000e+00 
1.137500e+05 0.000000e+00 0.000000e+00 
1.143750e+05 0.000000e+00 0.000000e+00 
1.150000e+05 0.000000e+00 0.000000e+00 
1.156250e+05 0.000000e+00 0.000000e+00 
1.162500e+05 0.000000e+00 0.000000e+00 
1.168750e+05 0.000000e+00 0.000000e+00 
1.175000e+05 0.000000e+00 0.000000e+00 
1.181250e+05 0.000000e+00 0.000000e+00 
1.187500e+05 0.000000e+00 0.000000e+00 
1.193750e+05 0.000000e+00 0.000000e+00 
1.200000e+05 0.000000e+00 0.000000e+00 
1.206250e+05 0.000000e+00 0.000000e+00 
1.212500e+05 0.000000e+00 0.000000e+00 
1.218750e+05 0.000000e+00 0.000000e+00 
1.225000e+05 0.000000e+00 0.000000e+00 
1.231250e+05 0.000000e+00 0.000000e+00 
1.237500e+05 0.000000e+00 0.000000e+00 
1.243750e+05 0.000000e+00 0.000000e+00 
1.250000e+05 0.000000e+00 0.000000e+00 
0.000000e+00 5.000000e+01 0.000000e+00 
6.250000e+02 5.000000e+01 0.000000e+00 
1.250000e+03 5.000000e+01 0.000000e+00 
1.875000e+03 5.000000e+01 0.000000e+00 
2.500000e+03 5.000000e+01 0.000000e+00 
3.125000e+03 5.000000e+01 0.000000e+00 
3.750000e+03 5.000000e+01 0.000000e+00 
4.375000e+03 5.000000e+01 0.000000e+00 
5.000000e+03 5.000000e+01 0.000000e+00 
5.625000e+03 5.000000e+01 0.000000e+00 
6.250000e+03 5.000000e+01 0.000000e+00 
6.875000e+03 5.000000e+01 0.000000e+00 
7.500000e+03 5.000000e+01 0.000000e+00 
8.125000e+03 5.000000e+01 0.000000e+00 
8.750000e+03 5.000000e+01 0.000000e+00 
9.375000e+03 5.000000e+01 0.000000e+00 
1.000000e+04 5.000000e+01 0.000000e+00 
1.062500e+04 5.000000e+01 0.000000e+00 
1.125000e+04 5.000000e+01 0.000000e+00 
1.187500e+04 5.000000e+01 0.000000e+00 
1.250000e+04 5.000000e+01 0.000000e+00 
1.312500e+04 5.000000e+01 0.000000e+00 
1.375000e+04 5.000000e+01 0.000000e+00 
1.437500e+04 5.000000e+01 0.000000e+00 
1.500000e+04 5.000000e+01 0.000000e+00 
1.562500e+04 5.000000e+01 0.000000e+00 
1.625000e+04 5.000000e+01 0.000000e+00 
1.687500e+04 5.000000e+01 0.000000e+00 
1.750000e+04 5.000000e+01 0.000000e+00 
1.812500e+04 5.000000e+01 0.000000e+00 
1.875000e+04 5.000000e+01 0.000000e+00 
1.937500e+04 5.000000e+01 0.000000e+00 
2.000000e+04 5.000000e+01 0.000000e+00 
2.062500e+04 5.000000e+01 0.000000e+00 
2.125000e+04 5.000000e+01 0.000000e+00 
2.187500e+04 5.000000e+01 0.000000e+00 
2.250000e+04 5.000000e+01 0.000000e+00 
2.312500e+04 5.000000e+01 0.000000e+00 
2.375000e+04 5.000000e+01 0.000000e+00 
2.437500e+04 5.000000e+01 0.000000e+00 
2.500000e+04 5.000000e+01 0.000000e+00 
2.562500e+04 5.000000e+01 0.000000e+00 
2.625000e+04 5.000000e+01 0.000000e+00 
[...]
<CellData Scalars='scalars'>
<DataArray type='Float32' Name='div.v' Format='ascii'> 
-5.390676e-16
1.319590e-15
2.523401e-16
1.415770e-15
1.486708e-15
1.254016e-15
1.044354e-15
8.317783e-16
6.725571e-16
5.401435e-16
4.372204e-16
3.550973e-16
2.900804e-16
2.378685e-16
1.944741e-16
1.585027e-16
1.336541e-16
1.079363e-16
9.111580e-17
7.599475e-17
6.402370e-17
5.365398e-17
4.533758e-17
3.816109e-17
3.211902e-17
2.715015e-17
2.295764e-17
1.946004e-17
1.643306e-17
1.380944e-17
1.199655e-17
1.029126e-17
8.881176e-18
7.762160e-18
6.804136e-18
6.074395e-18
5.531275e-18
5.130746e-18
4.880705e-18
4.710449e-18
4.842682e-18
4.950800e-18
5.193604e-18
5.711845e-18
6.319493e-18
7.084270e-18
7.907257e-18
9.273616e-18
1.074621e-17
1.248518e-17
1.461069e-17
1.714802e-17
1.993593e-17
2.377000e-17
2.771304e-17
3.279266e-17
3.854609e-17
4.543010e-17
5.343890e-17
6.292620e-17
7.379414e-17
8.662735e-17
1.016021e-16
1.184786e-16
1.393698e-16
1.586410e-16
1.912742e-16
2.082361e-16
2.537488e-16
2.913012e-16
3.352525e-16
3.973398e-16
4.154893e-16
5.697147e-16
5.323978e-16
7.315312e-16
8.370275e-16
1.007949e-15
1.181688e-15
1.498832e-15
1.403633e-15
1.947821e-15
1.996871e-15
2.138374e-15
2.641919e-15
2.956710e-15
3.253814e-15
3.182099e-15
2.774175e-15
3.549333e-15
1.589649e-14
-6.069821e-15
1.688516e-14
1.923199e-14
4.354969e-15
5.592253e-14
-2.051012e-13
7.327257e-13
-2.473801e-12
1.123960e-11
-1.194128e-15
3.196582e-15
2.328098e-16
-7.898151e-16
-1.364927e-15
-1.184649e-15
-7.660441e-16
-5.161948e-16
-3.206081e-16
-1.911247e-16
-1.029102e-16
-4.533274e-17
-8.398553e-18
1.371513e-17
2.636448e-17
3.964526e-17
4.927318e-17
4.188973e-17
3.805408e-17
3.359537e-17
2.960752e-17
2.576506e-17
2.245306e-17
1.937715e-17
1.666542e-17
1.433193e-17
1.230171e-17
1.054186e-17
9.050878e-18
7.808287e-18
6.663895e-18
5.767820e-18
5.000278e-18
4.391619e-18
3.865414e-18
3.465103e-18
3.161996e-18
2.946379e-18
2.797712e-18
2.726009e-18
2.790298e-18
2.868878e-18
3.031517e-18
3.349840e-18
3.691774e-18
4.153739e-18
4.678491e-18
5.492896e-18
6.403195e-18
7.480327e-18
8.816222e-18
1.042338e-17
1.227962e-17
1.475292e-17
1.748391e-17
2.097320e-17
2.513205e-17
3.023831e-17
3.645833e-17
4.413080e-17
5.351834e-17
6.521691e-17
7.979708e-17
9.784907e-17
1.213321e-16
1.472413e-16
1.921026e-16
2.255297e-16
2.857568e-16
3.445966e-16
4.203828e-16
5.185330e-16
6.079881e-16
8.256624e-16
8.252131e-16
9.542957e-16
9.501604e-16
9.407054e-16
8.426558e-16
8.703770e-16
8.159649e-16
1.252906e-15
1.408615e-15
1.531374e-15
1.787736e-15
1.960412e-15
2.116518e-15
2.122349e-15
1.837723e-15
3.941099e-15
8.414914e-15
-2.587753e-15
1.016177e-14
9.806010e-15
7.529475e-15
9.093746e-15
-6.013549e-14
2.831425e-13
-1.233790e-12
6.755967e-12
-7.844680e-16
7.006012e-16
-6.543910e-16
1.082389e-15
1.707830e-15
1.436345e-15
1.095865e-15
7.982111e-16
5.819668e-16
4.211744e-16
3.047488e-16
2.209311e-16
1.600641e-16
1.166018e-16
8.389982e-17
4.014579e-17
6.957119e-18
-3.629337e-18
-8.791896e-18
-1.114144e-17
-1.235881e-17
-1.220970e-17
-1.192889e-17
-1.086050e-17
-1.009226e-17
-8.906995e-18
-8.084084e-18
-6.958144e-18
-6.244689e-18
-5.368056e-18
-4.709129e-18
-4.112658e-18
-3.622706e-18
-3.179949e-18
-2.851332e-18
-2.566305e-18
-2.356881e-18
-2.188598e-18
-2.116215e-18
-2.089522e-18
-2.090360e-18
-2.170832e-18
-2.339238e-18
-2.560825e-18
-2.855600e-18
-3.248305e-18
-3.722075e-18
-4.350585e-18
-5.108145e-18
-6.076278e-18
-7.202539e-18
-8.633498e-18
-1.034697e-17
-1.262243e-17
-1.530344e-17
-1.875444e-17
-2.306072e-17
-2.855862e-17
-3.555789e-17
-4.443421e-17
-5.592831e-17
-7.086283e-17
-9.031999e-17
-1.160221e-16
-1.491971e-16
-1.963282e-16
-2.477081e-16
-3.384200e-16
-4.111505e-16
-5.169808e-16
-6.489864e-16
-8.108649e-16
-1.052671e-15
-1.229307e-15
-1.542403e-15
-1.486847e-15
-1.479481e-15
-1.294309e-15
-9.963573e-16
-6.922886e-16
-9.626869e-16
-1.201490e-15
-1.728612e-15
-1.992555e-15
-2.058327e-15
-2.333869e-15
-2.743674e-15
-3.196228e-15
-3.689857e-15
-2.462927e-15
-2.299371e-15
-7.784702e-15
-2.486922e-15
-5.800083e-15
-7.521203e-15
-1.872061e-14
-2.751390e-14
4.399941e-14
-5.327129e-13
2.991442e-12
-8.719972e-16
9.899871e-16
-1.231457e-16
-2.162892e-16
-6.172513e-16
-4.920164e-16
-3.984105e-16
-2.944352e-16
-2.245046e-16
-1.698771e-16
-1.297904e-16
-9.958949e-17
-7.693442e-17
-6.015666e-17
-4.684632e-17
-2.933203e-17
-1.206223e-17
-2.071880e-18
2.794902e-18
5.905544e-18
7.423532e-18
8.079315e-18
8.041727e-18
7.673527e-18
7.178817e-18
6.482451e-18
5.851219e-18
5.141472e-18
4.610732e-18
4.050967e-18
3.527393e-18
3.101237e-18
2.715168e-18
2.417852e-18
2.144230e-18
1.962581e-18
1.785265e-18
1.687395e-18
1.588184e-18
1.573800e-18
1.617409e-18
1.645371e-18
1.757005e-18
1.968055e-18
2.138304e-18
2.360716e-18
2.899818e-18
3.370955e-18
3.938706e-18
4.676944e-18
5.572826e-18
6.704129e-18
8.175328e-18
9.862190e-18
1.212086e-17
1.485887e-17
1.837841e-17
2.283450e-17
2.850969e-17
3.594530e-17
4.559938e-17
5.817456e-17
7.468612e-17
9.648951e-17
1.253602e-16
1.636767e-16
2.152784e-16
3.065309e-16
3.868512e-16
4.909539e-16
6.248838e-16
7.980233e-16
1.015336e-15
1.317941e-15
1.583233e-15
1.685221e-15
1.711623e-15
1.628269e-15
1.267852e-15
5.308820e-16
3.724681e-16
1.453699e-15
2.297290e-15
2.646732e-15
2.721682e-15
2.935710e-15
3.424813e-15
3.794317e-15
4.137030e-15
5.505219e-15
6.045337e-15
5.313536e-15
1.000818e-14
1.119739e-14
1.633915e-14
1.187651e-14
2.437039e-14
4.303298e-15
-1.032678e-13
1.002606e-12
-9.056389e-16
8.029364e-16
-1.222906e-16
1.265149e-16
1.207278e-16
1.886489e-16
1.297564e-16
1.101701e-16
8.371202e-17
6.559861e-17
5.090051e-17
3.993123e-17
3.155565e-17
2.467158e-17
2.087281e-17
1.380286e-17
6.585792e-18
5.110737e-18
2.619638e-18
1.370335e-18
4.218625e-19
-7.743983e-20
-4.289223e-19
-5.928561e-19
-6.369809e-19
-7.097082e-19
-6.579786e-19
-6.834382e-19
-5.426291e-19
-5.054208e-19
-4.890052e-19
-4.208585e-19
-3.940071e-19
-3.518899e-19
-3.262584e-19
-2.716397e-19
-2.667269e-19
-2.430771e-19
-2.513966e-19
-2.196244e-19
-2.387018e-19
-2.472818e-19
-2.859635e-19
-3.433415e-19
-3.965005e-19
-2.506874e-19
-4.165193e-19
-5.157512e-19
-6.872156e-19
-7.880204e-19
-9.464531e-19
-1.156017e-18
-1.375141e-18
-1.765435e-18
-2.155375e-18
-2.722812e-18
-3.442841e-18
-4.390562e-18
-5.539609e-18
-7.179263e-18
-9.387851e-18
-1.224333e-17
-1.614270e-17
-2.122814e-17
-2.855300e-17
-3.690366e-17
-5.330450e-17
-7.042696e-17
-1.022744e-16
-1.363136e-16
-1.832027e-16
-2.502297e-16
-3.236406e-16
-4.723069e-16
-5.188011e-16
-6.101958e-16
-6.357791e-16
-6.612044e-16
-4.383930e-16
3.958189e-16
8.935019e-16
2.221967e-16
-1.605108e-15
-2.081474e-15
-1.157775e-15
-9.777305e-16
-1.491460e-15
-1.844230e-15
-1.882383e-15
-1.451577e-15
-1.532942e-15
-3.346543e-15
-1.370581e-15
-1.926379e-15
-2.716228e-15
-1.202161e-14
-4.917974e-15
-4.540099e-14
3.902969e-14
-2.629442e-14
-9.877437e-16
7.838432e-16
6.269015e-18
2.132726e-17
-5.231544e-17
2.962000e-18
-6.811471e-18
4.725173e-18
4.339662e-18
5.286053e-18
4.923799e-18
4.678378e-18
4.297657e-18
3.641914e-18
3.926915e-18
3.448678e-18
2.882177e-18
3.937994e-18
3.381516e-18
3.198459e-18
2.840223e-18
2.543090e-18
2.207706e-18
1.883169e-18
1.681474e-18
1.439837e-18
1.247957e-18
1.076358e-18
9.071899e-19
8.308341e-19
6.816939e-19
6.105123e-19
5.072588e-19
4.520054e-19
3.884944e-19
3.809150e-19
3.353097e-19
3.207481e-19
2.880971e-19
3.137468e-19
2.849701e-19
3.089319e-19
3.217399e-19
3.293836e-19
3.954490e-19
5.384668e-19
5.157485e-19
6.308607e-19
6.420588e-19
7.750147e-19
9.307530e-19
1.105501e-18
1.340008e-18
1.562601e-18
1.905266e-18
2.247530e-18
2.735712e-18
3.308211e-18
4.051528e-18
4.927236e-18
5.989425e-18
7.399387e-18
9.062300e-18
1.140971e-17
1.400316e-17
1.828844e-17
2.131425e-17
3.235341e-17
3.827733e-17
5.025841e-17
6.553448e-17
8.137154e-17
1.145227e-16
1.216586e-16
1.920051e-16
1.819469e-16
1.941397e-16
2.263302e-16
1.247066e-16
-1.394314e-16
-3.137113e-16
-3.313707e-16
1.265508e-15
2.133401e-15
6.263422e-16
-7.275729e-16
4.946689e-16
7.683733e-16
5.537234e-16
1.031469e-15
1.735380e-15
6.728818e-16
2.951296e-15
4.487127e-15
4.549879e-15
2.623762e-16
6.656482e-15
-2.286210e-14
1.393910e-13
-6.480551e-13
-1.075978e-15
7.505227e-16
8.229174e-17
4.819140e-17
1.526261e-17
5.205849e-17
3.443797e-17
3.542857e-17
2.814396e-17
2.355658e-17
1.903065e-17
1.566061e-17
1.287854e-17
1.049241e-17
9.326047e-18
7.086227e-18
4.800664e-18
4.767998e-18
3.679987e-18
3.121168e-18
2.582448e-18
2.120154e-18
1.746108e-18
1.451664e-18
1.264526e-18
1.025829e-18
8.735699e-19
6.915311e-19
6.295871e-19
5.436839e-19
4.356091e-19
3.863551e-19
3.082927e-19
2.816804e-19
2.475140e-19
2.363220e-19
2.008030e-19
1.954878e-19
1.750640e-19
1.913833e-19
1.448552e-19
1.902895e-19
1.933687e-19
2.090101e-19
2.287394e-19
2.506419e-19
2.919638e-19
3.928122e-19
3.551081e-19
4.269687e-19
5.090644e-19
6.002282e-19
7.259062e-19
8.188447e-19
9.863133e-19
1.105238e-18
1.302433e-18
1.518186e-18
1.728944e-18
2.005776e-18
2.383376e-18
2.660886e-18
3.003105e-18
3.427792e-18
3.467937e-18
4.473286e-18
3.039810e-18
5.526461e-18
2.543448e-18
2.390243e-18
1.332587e-18
-4.207134e-18
1.990442e-19
-2.602624e-17
-5.111483e-20
-2.311214e-17
-1.960022e-17
-6.526335e-18
-6.682111e-18
9.039967e-17
2.115106e-16
4.248562e-17
-2.666802e-16
-7.286958e-16
2.523611e-16
2.151799e-15
-8.004751e-17
-1.002745e-15
2.739358e-16
2.356016e-16
9.759980e-16
-1.024674e-16
1.796885e-15
3.557235e-15
2.006331e-15
-9.460391e-16
2.189752e-15
-1.295658e-14
1.836059e-13
-1.048366e-12
-1.171670e-15
7.447183e-16
1.534288e-16
4.822215e-17
1.528607e-17
4.016683e-17
2.775561e-17
2.935756e-17
2.383552e-17
2.029939e-17
1.662508e-17
1.387136e-17
1.151215e-17
9.528666e-18
8.440177e-18
6.686711e-18
5.012522e-18
4.895098e-18
3.952042e-18
3.416361e-18
2.884155e-18
2.430072e-18
2.049126e-18
1.716591e-18
1.493904e-18
1.249565e-18
1.061766e-18
8.853337e-19
7.643259e-19
6.730953e-19
5.558090e-19
4.791270e-19
3.930998e-19
3.607829e-19
3.194262e-19
2.847763e-19
2.398512e-19
2.344185e-19
2.264309e-19
2.481972e-19
1.825476e-19
2.346623e-19
2.760542e-19
2.739166e-19
2.988546e-19
3.452915e-19
2.893999e-19
4.819911e-19
4.877810e-19
5.731097e-19
6.832827e-19
8.150836e-19
9.710775e-19
1.110961e-18
1.333644e-18
1.549907e-18
1.851978e-18
2.175249e-18
2.564956e-18
3.041142e-18
3.645800e-18
4.269557e-18
5.041208e-18
6.070367e-18
6.882895e-18
8.807680e-18
9.119085e-18
1.311066e-17
1.342770e-17
1.660177e-17
2.014168e-17
2.108637e-17
3.262517e-17
2.165344e-17
4.966726e-17
3.675179e-17
4.354851e-17
5.847360e-17
4.153868e-17
3.392464e-17
6.094844e-17
-1.708816e-17
1.667598e-16
3.341916e-16
-5.770935e-17
-7.628876e-16
7.868331e-16
1.917009e-15
-9.179499e-16
-8.721000e-17
1.730376e-15
1.521677e-16
2.211839e-15
4.135643e-15
2.026495e-15
1.092478e-15
1.895624e-15
4.648019e-15
2.043597e-13
-1.262642e-12
-1.267933e-15
7.502719e-16
2.070124e-16
6.142725e-17
3.093313e-17
4.603931e-17
3.362901e-17
3.292656e-17
2.673328e-17
2.248505e-17
1.838220e-17
1.523304e-17
1.259337e-17
1.044463e-17
9.069651e-18
7.228044e-18
5.499104e-18
5.116053e-18
4.170138e-18
3.551172e-18
2.977753e-18
2.496290e-18
2.104285e-18
1.761424e-18
1.503698e-18
1.269806e-18
1.098698e-18
9.268538e-19
7.940225e-19
6.715788e-19
5.564312e-19
4.827829e-19
4.042425e-19
3.710148e-19
3.205520e-19
2.726461e-19
2.455690e-19
2.359538e-19
2.231647e-19
2.354062e-19
1.940702e-19
2.353853e-19
2.521863e-19
2.578747e-19
2.612395e-19
3.395189e-19
3.107421e-19
4.396296e-19
4.902994e-19
5.673545e-19
6.832465e-19
8.007373e-19
9.502595e-19
1.087691e-18
1.318719e-18
1.522053e-18
1.823221e-18
2.130995e-18
2.513989e-18
2.951887e-18
3.465677e-18
4.073954e-18
4.805381e-18
5.693953e-18
6.421950e-18
8.071597e-18
8.339250e-18
1.131571e-17
1.145363e-17
1.375243e-17
1.613084e-17
1.604210e-17
2.487731e-17
1.463683e-17
3.471393e-17
2.420811e-17
3.071780e-17
4.252057e-17
3.763834e-17
5.235261e-17
9.381326e-17
2.573465e-17
5.583879e-17
4.236775e-17
7.048992e-17
2.809417e-16
-2.423395e-16
-8.327657e-16
2.145952e-15
5.115529e-16
3.203020e-16
3.082464e-16
2.364989e-15
4.066154e-15
1.662592e-15
2.201487e-15
1.275463e-15
2.073683e-14
2.107469e-13
-1.349250e-12
-1.362440e-15
7.680536e-16
2.469410e-16
7.522463e-17
4.027033e-17
4.811597e-17
3.588308e-17
3.378377e-17
2.746843e-17
2.296724e-17
1.881902e-17
1.556921e-17
1.287539e-17
1.071376e-17
9.201471e-18
7.426591e-18
5.800266e-18
5.249201e-18
4.329863e-18
3.679029e-18
3.095261e-18
2.600044e-18
2.194929e-18
1.838446e-18
1.559567e-18
1.309057e-18
1.121133e-18
9.681479e-19
8.163873e-19
6.961802e-19
5.783967e-19
4.981672e-19
4.261585e-19
3.860142e-19
3.371016e-19
2.854238e-19
2.513513e-19
2.492010e-19
2.316150e-19
2.390514e-19
2.150157e-19
2.470304e-19
2.589235e-19
2.740071e-19
3.020297e-19
3.563738e-19
3.383245e-19
4.741733e-19
5.270376e-19
6.109837e-19
7.210537e-19
8.435068e-19
9.893601e-19
1.144375e-18
1.377498e-18
1.600396e-18
1.914931e-18
2.251113e-18
2.655130e-18
3.084073e-18
3.687867e-18
4.336565e-18
5.096711e-18
6.043991e-18
6.899052e-18
8.568569e-18
9.148337e-18
1.194223e-17
1.269215e-17
1.518569e-17
1.788893e-17
1.863582e-17
2.738251e-17
2.063235e-17
3.729190e-17
3.014481e-17
3.701000e-17
4.757692e-17
4.486835e-17
4.978625e-17
7.895722e-17
3.391659e-17
8.759598e-17
1.185965e-16
6.079227e-17
1.176066e-17
1.077725e-16
1.932545e-16
-6.891946e-16
5.031634e-16
3.653178e-15
-2.204785e-16
2.764066e-15
3.645937e-15
1.380219e-15
3.008171e-15
1.171530e-15
3.493060e-14
2.085751e-13
-1.353447e-12
-1.453159e-15
7.953895e-16
2.728927e-16
9.162182e-17
4.962689e-17
5.191121e-17
3.884848e-17
3.527481e-17
2.860730e-17
2.377567e-17
1.948310e-17
1.605567e-17
1.328106e-17
1.105832e-17
9.408860e-18
7.637320e-18
6.067791e-18
5.374821e-18
4.453787e-18
3.768135e-18
3.168088e-18
2.658645e-18
2.245396e-18
1.884673e-18
1.595306e-18
1.342723e-18
1.137145e-18
9.866897e-19
8.133252e-19
6.954575e-19
5.894801e-19
5.145684e-19
4.423534e-19
3.930740e-19
3.423989e-19
2.965308e-19
2.633793e-19
2.567074e-19
2.461563e-19
2.424238e-19
2.233991e-19
2.440240e-19
2.632213e-19
2.901380e-19
3.455940e-19
3.601279e-19
3.584111e-19
4.848015e-19
5.397964e-19
6.300310e-19
7.287906e-19
8.585722e-19
1.010948e-18
1.174976e-18
1.405074e-18
1.642667e-18
1.951984e-18
2.294081e-18
2.707489e-18
3.167194e-18
3.751437e-18
4.410350e-18
5.182183e-18
6.120755e-18
7.028102e-18
8.652714e-18
9.402440e-18
1.189235e-17
1.288066e-17
1.528267e-17
1.789902e-17
1.892285e-17
2.683168e-17
2.200736e-17
3.540464e-17
3.049233e-17
3.733779e-17
4.661444e-17
4.714144e-17
5.226186e-17
7.813503e-17
4.598049e-17
7.973409e-17
9.618223e-17
7.834960e-17
9.881884e-17
4.295162e-17
-4.937845e-17
3.483945e-16
-6.545590e-16
1.169178e-15
-6.458999e-16
3.439193e-15
3.488200e-15
1.736614e-15
4.214933e-15
3.355158e-15
4.748595e-14
2.160684e-13
-1.338123e-12
-1.538876e-15
8.311868e-16
2.858050e-16
1.091268e-16
5.747400e-17
5.576738e-17
4.135601e-17
3.653089e-17
2.948327e-17
2.441582e-17
1.998837e-17
1.640546e-17
1.359133e-17
1.130549e-17
9.553889e-18
7.795810e-18
6.268288e-18
5.466931e-18
4.548066e-18
3.840863e-18
3.227606e-18
2.715122e-18
2.293068e-18
1.924858e-18
1.634186e-18
1.374633e-18
1.163689e-18
9.944863e-19
8.065803e-19
6.951416e-19
6.167292e-19
5.375113e-19
4.524238e-19
3.965724e-19
3.513213e-19
3.102933e-19
2.783477e-19
2.735951e-19
2.522963e-19
2.369223e-19
2.256773e-19
2.486370e-19
2.596407e-19
2.911727e-19
2.593301e-19
3.711703e-19
3.880276e-19
4.916659e-19
5.587810e-19
6.504243e-19
7.436448e-19
8.697413e-19
1.029410e-18
1.204223e-18
1.435795e-18
1.683687e-18
1.981009e-18
2.337340e-18
2.758436e-18
3.230132e-18
3.825000e-18
4.505998e-18
5.282835e-18
6.237605e-18
7.186794e-18
8.772857e-18
9.677328e-18
1.199329e-17
1.322363e-17
1.560923e-17
1.823569e-17
1.961045e-17
2.692609e-17
2.380417e-17
3.491769e-17
3.189860e-17
3.867194e-17
4.704546e-17
4.936332e-17
5.299132e-17
7.459271e-17
5.308096e-17
8.190228e-17
1.001342e-16
8.330413e-17
8.656170e-17
7.738308e-17
6.010685e-17
6.926791e-17
-9.204610e-17
1.084810e-15
4.945308e-16
3.714197e-15
3.144608e-15
1.790809e-15
4.777172e-15
6.104775e-15
5.659900e-14
2.297623e-13
-1.363577e-12
-1.618612e-15
8.742537e-16
2.862050e-16
1.273868e-16
6.435028e-17
5.996813e-17
4.375321e-17
3.779129e-17
3.031957e-17
2.500507e-17
2.044172e-17
1.677229e-17
1.387106e-17
1.152434e-17
9.694054e-18
7.938223e-18
6.435864e-18
5.544577e-18
4.632090e-18
3.902585e-18
3.277185e-18
2.758631e-18
2.327256e-18
1.957413e-18
1.652406e-18
1.395581e-18
1.181853e-18
1.005734e-18
8.241569e-19
7.228116e-19
6.285617e-19
5.416338e-19
4.621995e-19
4.026379e-19
3.551389e-19
3.218321e-19
2.856937e-19
2.816068e-19
2.572111e-19
2.340487e-19
2.235335e-19
2.551351e-19
2.652882e-19
2.914502e-19
3.257251e-19
3.779925e-19
3.899924e-19
4.925501e-19
5.665077e-19
6.576525e-19
7.629001e-19
8.836597e-19
1.051679e-18
1.215102e-18
1.446372e-18
1.697807e-18
2.011004e-18
2.375792e-18
2.800844e-18
3.295785e-18
3.876298e-18
4.563807e-18
5.356100e-18
6.310129e-18
7.299169e-18
8.846255e-18
9.867730e-18
1.203291e-17
1.343241e-17
1.578502e-17
1.838605e-17
2.003282e-17
2.674579e-17
2.489978e-17
3.423273e-17
3.267844e-17
3.932026e-17
4.696671e-17
5.062944e-17
5.390027e-17
7.258828e-17
5.865353e-17
8.112960e-17
9.700839e-17
8.847493e-17
9.663717e-17
8.313135e-17
5.978499e-17
1.739623e-16
-1.283691e-16
7.477779e-16
1.437796e-15
3.906982e-15
2.897217e-15
2.143372e-15
5.676788e-15
9.726015e-15
6.451191e-14
2.401191e-13
-1.368858e-12
-1.691424e-15
9.235109e-16
2.747014e-16
1.460282e-16
7.021153e-17
6.417549e-17
4.591483e-17
3.895727e-17
3.106737e-17
2.548605e-17
2.079981e-17
1.705741e-17
1.410013e-17
1.170611e-17
9.809018e-18
8.052842e-18
6.568044e-18
5.610090e-18
4.693534e-18
3.951476e-18
3.318770e-18
2.794504e-18
2.357577e-18
1.979742e-18
1.671141e-18
1.415463e-18
1.198226e-18
1.017560e-18
8.475118e-19
7.411623e-19
6.380819e-19
5.397277e-19
4.588289e-19
4.031866e-19
3.563689e-19
3.174590e-19
2.918157e-19
2.771961e-19
2.617301e-19
2.496241e-19
2.408171e-19
2.596182e-19
2.696326e-19
2.942781e-19
2.932905e-19
3.765812e-19
3.915966e-19
4.955798e-19
5.737135e-19
6.847143e-19
7.700170e-19
9.030820e-19
1.058393e-18
1.230458e-18
1.463281e-18
1.718931e-18
2.036349e-18
2.398536e-18
2.847780e-18
3.354067e-18
3.924066e-18
4.615013e-18
5.414026e-18
6.371226e-18
7.390367e-18
8.899200e-18
1.001183e-17
1.206846e-17
1.359401e-17
1.591876e-17
1.851024e-17
2.040140e-17
2.656235e-17
2.575960e-17
3.374516e-17
3.337387e-17
3.984788e-17
4.694018e-17
5.144244e-17
5.453956e-17
7.077855e-17
6.252561e-17
8.102675e-17
9.586313e-17
9.133127e-17
9.821094e-17
9.416783e-17
8.148894e-17
1.791334e-16
-6.009648e-17
8.081281e-16
2.232922e-15
3.945538e-15
2.578708e-15
2.489400e-15
6.472764e-15
1.391226e-14
7.034777e-14
2.486570e-13
-1.368270e-12
-1.756172e-15
9.777190e-16
2.518771e-16
1.648414e-16
7.512549e-17
6.845292e-17
4.775561e-17
4.002111e-17
3.168864e-17
2.590230e-17
2.108147e-17
1.730527e-17
1.428229e-17
1.184921e-17
9.895920e-18
8.140854e-18
6.668783e-18
5.661327e-18
4.741756e-18
3.986616e-18
3.348551e-18
2.821395e-18
2.378665e-18
1.999637e-18
1.688546e-18
1.430302e-18
1.213835e-18
1.033352e-18
8.653850e-19
7.532265e-19
6.402611e-19
5.402067e-19
4.687762e-19
4.124437e-19
3.584297e-19
3.209468e-19
2.926277e-19
2.751760e-19
2.685391e-19
2.634216e-19
2.468725e-19
2.610961e-19
2.744369e-19
3.016705e-19
3.587435e-19
3.848369e-19
4.101623e-19
5.126027e-19
5.735143e-19
6.765658e-19
7.759985e-19
9.081962e-19
1.063321e-18
1.235533e-18
1.481601e-18
1.736308e-18
2.050010e-18
2.416124e-18
2.854658e-18
3.367802e-18
3.950108e-18
4.650027e-18
5.453377e-18
6.414603e-18
7.452715e-18
8.930042e-18
1.011347e-17
1.208328e-17
1.369533e-17
1.599165e-17
1.857466e-17
2.066804e-17
2.632772e-17
2.634973e-17
3.328983e-17
3.387193e-17
4.014781e-17
4.681516e-17
5.184089e-17
5.504583e-17
6.934725e-17
6.526279e-17
8.066887e-17
9.425525e-17
9.316780e-17
1.005100e-16
1.014946e-16
9.446699e-17
2.036606e-16
-3.706051e-17
7.864451e-16
2.793678e-15
3.907513e-15
2.293836e-15
2.895173e-15
7.260452e-15
1.874294e-14
7.430000e-14
2.563539e-13
-1.363424e-12
-1.811327e-15
1.035393e-15
2.182927e-16
1.835661e-16
7.901088e-17
7.261879e-17
4.932863e-17
4.094598e-17
3.216517e-17
2.625296e-17
2.133476e-17
1.747713e-17