<VTKFile type='UnstructuredGrid' version='0.1' byte_order='BigEndian'> 
<UnstructuredGrid> 
<Piece NumberOfPoints='  1089 ' NumberOfCells='  1024 '> 
<Points> 
<DataArray type='Float32' NumberOfComponents='3' Format='ascii'> 
0.000000e+00 0.000000e+00 0.000000e+00 
3.125000e-02 0.000000e+00 0.000000e+00 
6.250000e-02 0.000000e+00 0.000000e+00 
9.375000e-02 0.000000e+00 0.000000e+00 
1.250000e-01 0.000000e+00 0.000000e+00 
1.562500e-01 0.000000e+00 0.000000e+00 
1.875000e-01 0.000000e+00 0.000000e+00 
2.187500e-01 0.000000e+00 0.000000e+00 
2.500000e-01 0.000000e+00 0.000000e+00 
2.812500e-01 0.000000e+00 0.000000e+00 
3.125000e-01 0.000000e+00 0.000000e+00 
3.437500e-01 0.000000e+00 0.000000e+00 
3.750000e-01 0.000000e+00 0.000000e+00 
4.062500e-01 0.000000e+00 0.000000e+00 
4.375000e-01 0.000000e+00 0.000000e+00 
4.687500e-01 0.000000e+00 0.000000e+00 
5.000000e-01 0.000000e+00 0.000000e+00 
5.312500e-01 0.000000e+00 0.000000e+00 
5.625000e-01 0.000000e+00 0.000000e+00 
5.937500e-01 0.000000e+00 0.000000e+00 
6.250000e-01 0.000000e+00 0.000000e+00 
6.562500e-01 0.000000e+00 0.000000e+00 
6.875000e-01 0.000000e+00 0.000000e+00 
7.187500e-01 0.000000e+00 0.000000e+00 
7.500000e-01 0.000000e+00 0.000000e+00 
7.812500e-01 0.000000e+00 0.000000e+00 
8.125000e-01 0.000000e+00 0.000000e+00 
8.437500e-01 0.000000e+00 0.000000e+00 
8.750000e-01 0.000000e+00 0.000000e+00 
9.062500e-01 0.000000e+00 0.000000e+00 
9.375000e-01 0.000000e+00 0.000000e+00 
9.687500e-01 0.000000e+00 0.000000e+00 
1.000000e+00 0.000000e+00 0.000000e+00 
0.000000e+00 3.125000e-02 0.000000e+00 
3.125000e-02 3.125000e-02 0.000000e+00 
6.250000e-02 3.125000e-02 0.000000e+00 
9.375000e-02 3.125000e-02 0.000000e+00 
1.250000e-01 3.125000e-02 0.000000e+00 
1.562500e-01 3.125000e-02 0.000000e+00 
1.875000e-01 3.125000e-02 0.000000e+00 
2.187500e-01 3.125000e-02 0.000000e+00 
2.500000e-01 3.125000e-02 0.000000e+00 
2.812500e-01 3.125000e-02 0.000000e+00 
3.125000e-01 3.125000e-02 0.000000e+00 
3.437500e-01 3.125000e-02 0.000000e+00 
3.750000e-01 3.125000e-02 0.000000e+00 
4.062500e-01 3.125000e-02 0.000000e+00 
4.375000e-01 3.125000e-02 0.000000e+00 
4.687500e-01 3.125000e-02 0.000000e+00 
5.000000e-01 3.125000e-02 0.000000e+00 
5.312500e-01 3.125000e-02 0.000000e+00 
5.625000e-01 3.125000e-02 0.000000e+00 
5.937500e-01 3.125000e-02 0.000000e+00 
6.250000e-01 3.125000e-02 0.000000e+00 
6.562500e-01 3.125000e-02 0.000000e+00 
6.875000e-01 3.125000e-02 0.000000e+00 
7.187500e-01 3.125000e-02 0.000000e+00 
7.500000e-01 3.125000e-02 0.000000e+00 
7.812500e-01 3.125000e-02 0.000000e+00 
8.125000e-01 3.125000e-02 0.000000e+00 
8.437500e-01 3.125000e-02 0.000000e+00 
8.750000e-01 3.125000e-02 0.000000e+00 
9.062500e-01 3.125000e-02 0.000000e+00 
9.375000e-01 3.125000e-02 0.000000e+00 
9.687500e-01 3.125000e-02 0.000000e+00 
1.000000e+00 3.125000e-02 0.000000e+00 
0.000000e+00 6.250000e-02 0.000000e+00 
3.125000e-02 6.250000e-02 0.000000e+00 
6.250000e-02 6.250000e-02 0.000000e+00 
9.375000e-02 6.250000e-02 0.000000e+00 
1.250000e-01 6.250000e-02 0.000000e+00 
1.562500e-01 6.250000e-02 0.000000e+00 
1.875000e-01 6.250000e-02 0.000000e+00 
2.187500e-01 6.250000e-02 0.000000e+00 
2.500000e-01 6.250000e-02 0.000000e+00 
2.812500e-01 6.250000e-02 0.000000e+00 
3.125000e-01 6.250000e-02 0.000000e+00 
3.437500e-01 6.250000e-02 0.000000e+00 
3.750000e-01 6.250000e-02 0.000000e+00 
4.062500e-01 6.250000e-02 0.000000e+00 
4.375000e-01 6.250000e-02 0.000000e+00 
4.687500e-01 6.250000e-02 0.000000e+00 
5.000000e-01 6.250000e-02 0.000000e+00 
5.312500e-01 6.250000e-02 0.000000e+00 
5.625000e-01 6.250000e-02 0.000000e+00 
5.937500e-01 6.250000e-02 0.000000e+00 
6.250000e-01 6.250000e-02 0.000000e+00 
6.562500e-01 6.250000e-02 0.000000e+00 
6.875000e-01 6.250000e-02 0.000000e+00 
7.187500e-01 6.250000e-02 0.000000e+00 
7.500000e-01 6.250000e-02 0.000000e+00 
7.812500e-01 6.250000e-02 0.000000e+00 
8.125000e-01 6.250000e-02 0.000000e+00 
8.437500e-01 6.250000e-02 0.000000e+00 
8.750000e-01 6.250000e-02 0.000000e+00 
9.062500e-01 6.250000e-02 0.000000e+00 
9.375000e-01 6.250000e-02 0.000000e+00 
9.687500e-01 6.250000e-02 0.000000e+00 
1.000000e+00 6.250000e-02 0.000000e+00 
0.000000e+00 9.375000e-02 0.000000e+00 
3.125000e-02 9.375000e-02 0.000000e+00 
6.250000e-02 9.375000e-02 0.000000e+00 
9.375000e-02 9.375000e-02 0.000000e+00 
1.250000e-01 9.375000e-02 0.000000e+00 
1.562500e-01 9.375000e-02 0.000000e+00 
1.875000e-01 9.375000e-02 0.000000e+00 
2.187500e-01 9.375000e-02 0.000000e+00 
2.500000e-01 9.375000e-02 0.000000e+00 
2.812500e-01 9.375000e-02 0.000000e+00 
3.125000e-01 9.375000e-02 0.000000e+00 
3.437500e-01 9.375000e-02 0.000000e+00 
3.750000e-01 9.375000e-02 0.000000e+00 
4.062500e-01 9.375000e-02 0.000000e+00 
4.375000e-01 9.375000e-02 0.000000e+00 
4.687500e-01 9.375000e-02 0.000000e+00 
5.000000e-01 9.375000e-02 0.000000e+00 
5.312500e-01 9.375000e-02 0.000000e+00 
5.625000e-01 9.375000e-02 0.000000e+00 
5.937500e-01 9.375000e-02 0.000000e+00 
6.250000e-01 9.375000e-02 0.000000e+00 
6.562500e-01 9.375000e-02 0.000000e+00 
6.875000e-01 9.375000e-02 0.000000e+00 
7.187500e-01 9.375000e-02 0.000000e+00 
7.500000e-01 9.375000e-02 0.000000e+00 
7.812500e-01 9.375000e-02 0.000000e+00 
8.125000e-01 9.375000e-02 0.000000e+00 
8.437500e-01 9.375000e-02 0.000000e+00 
8.750000e-01 9.375000e-02 0.000000e+00 
9.062500e-01 9.375000e-02 0.000000e+00 
9.375000e-01 9.375000e-02 0.000000e+00 
9.687500e-01 9.375000e-02 0.000000e+00 
1.000000e+00 9.375000e-02 0.000000e+00 
0.000000e+00 1.250000e-01 0.000000e+00 
3.125000e-02 1.250000e-01 0.000000e+00 
6.250000e-02 1.250000e-01 0.000000e+00 
9.375000e-02 1.250000e-01 0.000000e+00 
1.250000e-01 1.250000e-01 0.000000e+00 
1.562500e-01 1.250000e-01 0.000000e+00 
1.875000e-01 1.250000e-01 0.000000e+00 
2.187500e-01 1.250000e-01 0.000000e+00 
2.500000e-01 1.250000e-01 0.000000e+00 
2.812500e-01 1.250000e-01 0.000000e+00 
3.125000e-01 1.250000e-01 0.000000e+00 
3.437500e-01 1.250000e-01 0.000000e+00 
3.750000e-01 1.250000e-01 0.000000e+00 
4.062500e-01 1.250000e-01 0.000000e+00 
4.375000e-01 1.250000e-01 0.000000e+00 
4.687500e-01 1.250000e-01 0.000000e+00 
5.000000e-01 1.250000e-01 0.000000e+00 
5.312500e-01 1.250000e-01 0.000000e+00 
5.625000e-01 1.250000e-01 0.000000e+00 
5.937500e-01 1.250000e-01 0.000000e+00 
6.250000e-01 1.250000e-01 0.000000e+00 
6.562500e-01 1.250000e-01 0.000000e+00 
6.875000e-01 1.250000e-01 0.000000e+00 
7.187500e-01 1.250000e-01 0.000000e+00 
7.500000e-01 1.250000e-01 0.000000e+00 
7.812500e-01 1.250000e-01 0.000000e+00 
8.125000e-01 1.250000e-01 0.000000e+00 
8.437500e-01 1.250000e-01 0.000000e+00 
8.750000e-01 1.250000e-01 0.000000e+00 
9.062500e-01 1.250000e-01 0.000000e+00 
9.375000e-01 1.250000e-01 0.000000e+00 
9.687500e-01 1.250000e-01 0.000000e+00 
1.000000e+00 1.250000e-01 0.000000e+00 
0.000000e+00 1.562500e-01 0.000000e+00 
3.125000e-02 1.562500e-01 0.000000e+00 
6.250000e-02 1.562500e-01 0.000000e+00 
9.375000e-02 1.562500e-01 0.000000e+00 
1.250000e-01 1.562500e-01 0.000000e+00 
1.562500e-01 1.562500e-01 0.000000e+00 
1.875000e-01 1.562500e-01 0.000000e+00 
2.187500e-01 1.562500e-01 0.000000e+00 
2.500000e-01 1.562500e-01 0.000000e+00 
2.812500e-01 1.562500e-01 0.000000e+00 
3.125000e-01 1.562500e-01 0.000000e+00 
3.437500e-01 1.562500e-01 0.000000e+00 
3.750000e-01 1.562500e-01 0.000000e+00 
4.062500e-01 1.562500e-01 0.000000e+00 
4.375000e-01 1.562500e-01 0.000000e+00 
4.687500e-01 1.562500e-01 0.000000e+00 
5.000000e-01 1.562500e-01 0.000000e+00 
5.312500e-01 1.562500e-01 0.000000e+00 
5.625000e-01 1.562500e-01 0.000000e+00 
5.937500e-01 1.562500e-01 0.000000e+00 
6.250000e-01 1.562500e-01 0.000000e+00 
6.562500e-01 1.562500e-01 0.000000e+00 
6.875000e-01 1.562500e-01 0.000000e+00 
7.187500e-01 1.562500e-01 0.000000e+00 
7.500000e-01 1.562500e-01 0.000000e+00 
7.812500e-01 1.562500e-01 0.000000e+00 
8.125000e-01 1.562500e-01 0.000000e+00 
8.437500e-01 1.562500e-01 0.000000e+00 
8.750000e-01 1.562500e-01 0.000000e+00 
9.062500e-01 1.562500e-01 0.000000e+00 
9.375000e-01 1.562500e-01 0.000000e+00 
9.687500e-01 1.562500e-01 0.000000e+00 
1.000000e+00 1.562500e-01 0.000000e+00 
0.000000e+00 1.875000e-01 0.000000e+00 
3.125000e-02 1.875000e-01 0.000000e+00 
6.250000e-02 1.875000e-01 0.000000e+00 
9.375000e-02 1.875000e-01 0.000000e+00 
1.250000e-01 1.875000e-01 0.000000e+00 
1.562500e-01 1.875000e-01 0.000000e+00 
1.875000e-01 1.875000e-01 0.000000e+00 
2.187500e-01 1.875000e-01 0.000000e+00 
2.500000e-01 1.875000e-01 0.000000e+00 
2.812500e-01 1.875000e-01 0.000000e+00 
3.125000e-01 1.875000e-01 0.000000e+00 
3.437500e-01 1.875000e-01 0.000000e+00 
3.750000e-01 1.875000e-01 0.000000e+00 
4.062500e-01 1.875000e-01 0.000000e+00 
4.375000e-01 1.875000e-01 0.000000e+00 
4.687500e-01 1.875000e-01 0.000000e+00 
5.000000e-01 1.875000e-01 0.000000e+00 
5.312500e-01 1.875000e-01 0.000000e+00 
5.625000e-01 1.875000e-01 0.000000e+00 
5.937500e-01 1.875000e-01 0.000000e+00 
6.250000e-01 1.875000e-01 0.000000e+00 
6.562500e-01 1.875000e-01 0.000000e+00 
6.875000e-01 1.875000e-01 0.000000e+00 
7.187500e-01 1.875000e-01 0.000000e+00 
7.500000e-01 1.875000e-01 0.000000e+00 
7.812500e-01 1.875000e-01 0.000000e+00 
8.125000e-01 1.875000e-01 0.000000e+00 
8.437500e-01 1.875000e-01 0.000000e+00 
8.750000e-01 1.875000e-01 0.000000e+00 
9.062500e-01 1.875000e-01 0.000000e+00 
9.375000e-01 1.875000e-01 0.000000e+00 
9.687500e-01 1.875000e-01 0.000000e+00 
1.000000e+00 1.875000e-01 0.000000e+00 
0.000000e+00 2.187500e-01 0.000000e+00 
3.125000e-02 2.187500e-01 0.000000e+00 
6.250000e-02 2.187500e-01 0.000000e+00 
9.375000e-02 2.187500e-01 0.000000e+00 
1.250000e-01 2.187500e-01 0.000000e+00 
1.562500e-01 2.187500e-01 0.000000e+00 
1.875000e-01 2.187500e-01 0.000000e+00 
2.187500e-01 2.187500e-01 0.000000e+00 
2.500000e-01 2.187500e-01 0.000000e+00 
2.812500e-01 2.187500e-01 0.000000e+00 
3.125000e-01 2.187500e-01 0.000000e+00 
3.437500e-01 2.187500e-01 0.000000e+00 
3.750000e-01 2.187500e-01 0.000000e+00 
[...]
<CellData Scalars='scalars'>
<DataArray type='Float32' Name='p' Format='ascii'> 
-3.751437e+01
-3.771509e+01
-3.806588e+01
-3.849110e+01
-3.892122e+01
-3.931080e+01
-3.964009e+01
-3.990739e+01
-4.012034e+01
-4.028954e+01
-4.042518e+01
-4.053574e+01
-4.062775e+01
-4.070617e+01
-4.077471e+01
-4.083626e+01
-4.089324e+01
-4.094781e+01
-4.100211e+01
-4.105839e+01
-4.111907e+01
-4.118667e+01
-4.126359e+01
-4.135147e+01
-4.145030e+01
-4.155709e+01
-4.166473e+01
-4.176206e+01
-4.183624e+01
-4.187778e+01
-4.188733e+01
-4.188156e+01
-3.620680e+01
-3.627995e+01
-3.641296e+01
-3.658458e+01
-3.677263e+01
-3.695904e+01
-3.713183e+01
-3.728498e+01
-3.741706e+01
-3.752952e+01
-3.762521e+01
-3.770731e+01
-3.777882e+01
-3.784233e+01
-3.790002e+01
-3.795372e+01
-3.800502e+01
-3.805541e+01
-3.810630e+01
-3.815910e+01
-3.821517e+01
-3.827574e+01
-3.834169e+01
-3.841324e+01
-3.848952e+01
-3.856806e+01
-3.864449e+01
-3.871254e+01
-3.876494e+01
-3.879515e+01
-3.879931e+01
-3.878897e+01
-3.431159e+01
-3.437114e+01
-3.446984e+01
-3.457992e+01
-3.468096e+01
-3.476535e+01
-3.483465e+01
-3.489343e+01
-3.494559e+01
-3.499348e+01
-3.503832e+01
-3.508079e+01
-3.512141e+01
-3.516065e+01
-3.519901e+01
-3.523703e+01
-3.527522e+01
-3.531409e+01
-3.535412e+01
-3.539574e+01
-3.543927e+01
-3.548493e+01
-3.553274e+01
-3.558251e+01
-3.563372e+01
-3.568530e+01
-3.573502e+01
-3.577863e+01
-3.580937e+01
-3.581819e+01
-3.579777e+01
-3.576660e+01
-3.160351e+01
-3.170148e+01
-3.186232e+01
-3.203754e+01
-3.218999e+01
-3.230409e+01
-3.238128e+01
-3.243078e+01
-3.246267e+01
-3.248488e+01
-3.250263e+01
-3.251899e+01
-3.253561e+01
-3.255329e+01
-3.257239e+01
-3.259302e+01
-3.261520e+01
-3.263885e+01
-3.266387e+01
-3.269009e+01
-3.271737e+01
-3.274555e+01
-3.277458e+01
-3.280455e+01
-3.283566e+01
-3.286788e+01
-3.289993e+01
-3.292744e+01
-3.294135e+01
-3.292872e+01
-3.288282e+01
-3.283315e+01
-2.886238e+01
-2.898359e+01
-2.917897e+01
-2.938780e+01
-2.956806e+01
-2.970428e+01
-2.979834e+01
-2.985895e+01
-2.989566e+01
-2.991663e+01
-2.992812e+01
-2.993457e+01
-2.993898e+01
-2.994319e+01
-2.994827e+01
-2.995473e+01
-2.996274e+01
-2.997223e+01
-2.998304e+01
-2.999497e+01
-3.000783e+01
-3.002152e+01
-3.003613e+01
-3.005194e+01
-3.006946e+01
-3.008911e+01
-3.011006e+01
-3.012776e+01
-3.013134e+01
-3.010496e+01
-3.004425e+01
-2.998637e+01
-2.620203e+01
-2.633812e+01
-2.654957e+01
-2.676555e+01
-2.694508e+01
-2.707826e+01
-2.717057e+01
-2.723128e+01
-2.726888e+01
-2.729013e+01
-2.730027e+01
-2.730333e+01
-2.730229e+01
-2.729930e+01
-2.729579e+01
-2.729267e+01
-2.729044e+01
-2.728932e+01
-2.728941e+01
-2.729070e+01
-2.729323e+01
-2.729702e+01
-2.730221e+01
-2.730908e+01
-2.731810e+01
-2.732978e+01
-2.734363e+01
-2.735562e+01
-2.735480e+01
-2.732475e+01
-2.726317e+01
-2.720827e+01
-2.360652e+01
-2.374668e+01
-2.395546e+01
-2.415802e+01
-2.431913e+01
-2.443534e+01
-2.451496e+01
-2.456732e+01
-2.459988e+01
-2.461814e+01
-2.462616e+01
-2.462703e+01
-2.462314e+01
-2.461633e+01
-2.460799e+01
-2.459910e+01
-2.459038e+01
-2.458233e+01
-2.457533e+01
-2.456966e+01
-2.456558e+01
-2.456326e+01
-2.456287e+01
-2.456459e+01
-2.456877e+01
-2.457586e+01
-2.458570e+01
-2.459517e+01
-2.459478e+01
-2.456964e+01
-2.451826e+01
-2.447372e+01
-2.106520e+01
-2.119296e+01
-2.137634e+01
-2.154677e+01
-2.167767e+01
-2.177004e+01
-2.183251e+01
-2.187319e+01
-2.189809e+01
-2.191151e+01
-2.191645e+01
-2.191517e+01
-2.190937e+01
-2.190042e+01
-2.188945e+01
-2.187735e+01
-2.186489e+01
-2.185274e+01
-2.184149e+01
-2.183165e+01
-2.182367e+01
-2.181784e+01
-2.181436e+01
-2.181340e+01
-2.181519e+01
-2.182017e+01
-2.182841e+01
-2.183791e+01
-2.184137e+01
-2.182651e+01
-2.179095e+01
-2.175944e+01
-1.856984e+01
-1.866285e+01
-1.879616e+01
-1.891979e+01
-1.901455e+01
-1.908134e+01
-1.912630e+01
-1.915518e+01
-1.917229e+01
-1.918067e+01
-1.918243e+01
-1.917912e+01
-1.917190e+01
-1.916170e+01
-1.914937e+01
-1.913566e+01
-1.912129e+01
-1.910698e+01
-1.909343e+01
-1.908129e+01
-1.907112e+01
-1.906333e+01
-1.905819e+01
-1.905590e+01
-1.905673e+01
-1.906110e+01
-1.906934e+01
-1.908050e+01
-1.908964e+01
-1.908697e+01
-1.906799e+01
-1.904882e+01
-1.611540e+01
-1.614614e+01
-1.620506e+01
-1.627215e+01
-1.632956e+01
-1.637225e+01
-1.640155e+01
-1.642016e+01
-1.643056e+01
-1.643462e+01
-1.643369e+01
-1.642875e+01
-1.642055e+01
-1.640973e+01
-1.639686e+01
-1.638256e+01
-1.636746e+01
-1.635225e+01
-1.633764e+01
-1.632433e+01
-1.631292e+01
-1.630394e+01
-1.629779e+01
-1.629477e+01
-1.629524e+01
-1.629968e+01
-1.630868e+01
-1.632218e+01
-1.633728e+01
-1.634596e+01
-1.634136e+01
-1.633230e+01
-1.369919e+01
-1.363705e+01
-1.359960e+01
-1.360477e+01
-1.362628e+01
-1.364761e+01
-1.366371e+01
-1.367400e+01
-1.367911e+01
-1.367986e+01
-1.367695e+01
-1.367092e+01
-1.366224e+01
-1.365130e+01
-1.363851e+01
-1.362433e+01
-1.360928e+01
-1.359397e+01
-1.357904e+01
-1.356516e+01
-1.355298e+01
-1.354313e+01
-1.353613e+01
-1.353249e+01
-1.353269e+01
-1.353732e+01
-1.354718e+01
-1.356290e+01
-1.358302e+01
-1.360059e+01
-1.360687e+01
-1.360536e+01
-1.131975e+01
-1.113423e+01
-1.098192e+01
-1.092236e+01
-1.090996e+01
-1.091234e+01
-1.091728e+01
-1.092083e+01
-1.092188e+01
-1.092023e+01
-1.091600e+01
-1.090943e+01
-1.090073e+01
-1.089013e+01
-1.087789e+01
-1.086435e+01
-1.084989e+01
-1.083498e+01
-1.082016e+01
-1.080605e+01
-1.079333e+01
-1.078270e+01
-1.077487e+01
-1.077050e+01
-1.077023e+01
-1.077480e+01
-1.078517e+01
-1.080241e+01
-1.082582e+01
-1.084908e+01
-1.086256e+01
-1.086621e+01
-8.975771e+00
-8.640706e+00
-8.358800e+00
-8.232039e+00
-8.186489e+00
-8.170931e+00
-8.165585e+00
-8.163186e+00
-8.160824e+00
-8.157324e+00
-8.152264e+00
-8.145543e+00
-8.137190e+00
-8.127294e+00
-8.115989e+00
-8.103457e+00
-8.089948e+00
-8.075788e+00
-8.061409e+00
-8.047356e+00
-8.034297e+00
-8.022999e+00
-8.014296e+00
-8.009019e+00
-8.007982e+00
-8.012040e+00
-8.022278e+00
-8.039907e+00
-8.064495e+00
-8.090178e+00
-8.107400e+00
-8.114132e+00
-6.665269e+00
-6.163657e+00
-5.740931e+00
-5.542817e+00
-5.462353e+00
-5.427762e+00
-5.411417e+00
-5.402650e+00
-5.396708e+00
-5.391347e+00
-5.385529e+00
-5.378798e+00
-5.370971e+00
-5.361985e+00
-5.351841e+00
-5.340585e+00
-5.328320e+00
-5.315234e+00
-5.301631e+00
-5.287962e+00
-5.274851e+00
-5.263082e+00
-5.253562e+00
-5.247252e+00
-5.245103e+00
-5.248090e+00
-5.257343e+00
-5.273997e+00
-5.297540e+00
-5.322603e+00
-5.340569e+00
-5.348558e+00
-4.385151e+00
-3.713892e+00
-3.142767e+00
-2.866059e+00
-2.745574e+00
-2.688263e+00
-2.658178e+00
-2.641072e+00
-2.630205e+00
-2.622104e+00
-2.614977e+00
-2.607912e+00
-2.600444e+00
-2.592319e+00
-2.583382e+00
-2.573535e+00
-2.562736e+00
-2.551025e+00
-2.538564e+00
-2.525681e+00
-2.512906e+00
-2.500973e+00
-2.490797e+00
-2.483398e+00
-2.479827e+00
-2.481140e+00
-2.488443e+00
-2.502649e+00
-2.523036e+00
-2.544887e+00
-2.561102e+00
-2.568801e+00
-2.131318e+00
-1.304769e+00
-5.824785e-01
-2.165207e-01
-4.714678e-02
3.951138e-02
8.847801e-02
1.178820e-01
1.366331e-01
1.496262e-01
1.596016e-01
1.680867e-01
1.759488e-01
1.837127e-01
1.917359e-01
2.002875e-01
2.095730e-01
2.197165e-01
2.307242e-01
2.424315e-01
2.544602e-01
2.661932e-01
2.767920e-01
2.852533e-01
2.904987e-01
2.914442e-01
2.870646e-01
2.767158e-01
2.612856e-01
2.446377e-01
2.320647e-01
2.258851e-01
1.006281e-01
1.049610e+00
1.918396e+00
2.386564e+00
2.617371e+00
2.743057e+00
2.818689e+00
2.866730e+00
2.898421e+00
2.920251e+00
2.936105e+00
2.948324e+00
2.958333e+00
2.967045e+00
2.975102e+00
2.982998e+00
2.991139e+00
2.999849e+00
3.009340e+00
3.019662e+00
3.030649e+00
3.041878e+00
3.052668e+00
3.062125e+00
3.069226e+00
3.072930e+00
3.072328e+00
3.066999e+00
3.057816e+00
3.047624e+00
3.039878e+00
3.036039e+00
2.314058e+00
3.336781e+00
4.336248e+00
4.919022e+00
5.226669e+00
5.403851e+00
5.516461e+00
5.591968e+00
5.644095e+00
5.680993e+00
5.707834e+00
5.727933e+00
5.743442e+00
5.755800e+00
5.766032e+00
5.774931e+00
5.783161e+00
5.791291e+00
5.799785e+00
5.808967e+00
5.818953e+00
5.829601e+00
5.840482e+00
5.850904e+00
5.859993e+00
5.866819e+00
5.870595e+00
5.871005e+00
5.868684e+00
5.865373e+00
5.862870e+00
5.861719e+00
4.509588e+00
5.548270e+00
6.648107e+00
7.352559e+00
7.753440e+00
7.996651e+00
8.158497e+00
8.272366e+00
8.354723e+00
8.415376e+00
8.460782e+00
8.495309e+00
8.521939e+00
8.542746e+00
8.559229e+00
8.572549e+00
8.583671e+00
8.593443e+00
8.602623e+00
8.611853e+00
8.621607e+00
8.632119e+00
8.643323e+00
8.654845e+00
8.666057e+00
8.676206e+00
8.684607e+00
8.690904e+00
8.695307e+00
8.698489e+00
8.700916e+00
8.702344e+00
6.683583e+00
7.680938e+00
8.835736e+00
9.657454e+00
1.016553e+01
1.049011e+01
1.071451e+01
1.087875e+01
1.100260e+01
1.109761e+01
1.117142e+01
1.122941e+01
1.127539e+01
1.131210e+01
1.134154e+01
1.136526e+01
1.138453e+01
1.140046e+01
1.141408e+01
1.142635e+01
1.143813e+01
1.145008e+01
1.146261e+01
1.147582e+01
1.148945e+01
1.150301e+01
1.151591e+01
1.152767e+01
1.153800e+01
1.154665e+01
1.155315e+01
1.155671e+01
8.827664e+00
9.736457e+00
1.089011e+01
1.180763e+01
1.242902e+01
1.284876e+01
1.314905e+01
1.337575e+01
1.355260e+01
1.369321e+01
1.380645e+01
1.389861e+01
1.397426e+01
1.403676e+01
1.408858e+01
1.413160e+01
1.416733e+01
1.419706e+01
1.422198e+01
1.424325e+01
1.426200e+01
1.427928e+01
1.429599e+01
1.431275e+01
1.432984e+01
1.434716e+01
1.436433e+01
1.438078e+01
1.439581e+01
1.440859e+01
1.441806e+01
1.442314e+01
1.092962e+01
1.171900e+01
1.281401e+01
1.378744e+01
1.451393e+01
1.503680e+01
1.542458e+01
1.572495e+01
1.596546e+01
1.616220e+01
1.632551e+01
1.646264e+01
1.657888e+01
1.667816e+01
1.676337e+01
1.683668e+01
1.689974e+01
1.695389e+01
1.700035e+01
1.704026e+01
1.707476e+01
1.710506e+01
1.713229e+01
1.715749e+01
1.718145e+01
1.720455e+01
1.722679e+01
1.724775e+01
1.726664e+01
1.728242e+01
1.729390e+01
1.729997e+01
1.297556e+01
1.363247e+01
1.462075e+01
1.559737e+01
1.640216e+01
1.702431e+01
1.750586e+01
1.788868e+01
1.820175e+01
1.846347e+01
1.868585e+01
1.887725e+01
1.904378e+01
1.918996e+01
1.931912e+01
1.943371e+01
1.953554e+01
1.962596e+01
1.970606e+01
1.977681e+01
1.983916e+01
1.989408e+01
1.994260e+01
1.998576e+01
2.002448e+01
2.005948e+01
2.009112e+01
2.011932e+01
2.014357e+01
2.016303e+01
2.017674e+01
2.018385e+01
1.495293e+01
1.547925e+01
1.632966e+01
1.725502e+01
1.809464e+01
1.879558e+01
1.936662e+01
1.983499e+01
2.022617e+01
2.055909e+01
2.084704e+01
2.109952e+01
2.132350e+01
2.152420e+01
2.170547e+01
2.187013e+01
2.202019e+01
2.215706e+01
2.228177e+01
2.239507e+01
2.249760e+01
2.258996e+01
2.267276e+01
2.274663e+01
2.281218e+01
2.286995e+01
2.292027e+01
2.296323e+01
2.299861e+01
2.302593e+01
2.304460e+01
2.305409e+01
1.685490e+01
1.726242e+01
1.796238e+01
1.879154e+01
1.961435e+01
2.035696e+01
2.099811e+01
2.154477e+01
2.201303e+01
2.241886e+01
2.277527e+01
2.309231e+01
2.337766e+01
2.363716e+01
2.387522e+01
2.409509e+01
2.429908e+01
2.448877e+01
2.466521e+01
2.482902e+01
2.498059e+01
2.512014e+01
2.524778e+01
2.536357e+01
2.546752e+01
2.555957e+01
2.563956e+01
2.570725e+01
2.576224e+01
2.580408e+01
2.583230e+01
2.584652e+01
1.868775e+01
1.899302e+01
1.954510e+01
2.024876e+01
2.100562e+01
2.174197e+01
2.241799e+01
2.302113e+01
2.355435e+01
2.402676e+01
2.444851e+01
2.482873e+01
2.517505e+01
2.549357e+01
2.578907e+01
2.606516e+01
2.632444e+01
2.656870e+01
2.679907e+01
2.701613e+01
2.722009e+01
2.741084e+01
2.758805e+01
2.775123e+01
2.789969e+01
2.803265e+01
2.814921e+01
2.824840e+01
2.832923e+01
2.839079e+01
2.843229e+01
2.845320e+01
2.048457e+01
2.070482e+01
2.112079e+01
2.168509e+01
2.233664e+01
2.301623e+01
2.367955e+01
2.430138e+01
2.487212e+01
2.539189e+01
2.586546e+01
2.629911e+01
2.669908e+01
2.707091e+01
2.741920e+01
2.774758e+01
2.805876e+01
2.835460e+01
2.863625e+01
2.890423e+01
2.915857e+01
2.939887e+01
2.962439e+01
2.983410e+01
3.002668e+01
3.020064e+01
3.035430e+01
3.048590e+01
3.059370e+01
3.067613e+01
3.073187e+01
3.075998e+01
2.233012e+01
2.248059e+01
2.277537e+01
2.319719e+01
2.371533e+01
2.429101e+01
2.488699e+01
2.547490e+01
2.603757e+01
2.656723e+01
2.706242e+01
2.752514e+01
2.795889e+01
2.836752e+01
2.875464e+01
2.912330e+01
2.947583e+01
2.981387e+01
3.013836e+01
3.044958e+01
3.074726e+01
3.103063e+01
3.129848e+01
3.154922e+01
3.178092e+01
3.199138e+01
3.217822e+01
3.233894e+01
3.247109e+01
3.257245e+01
3.264114e+01
3.267584e+01
2.440440e+01
2.449684e+01
2.468398e+01
2.496479e+01
2.532946e+01
2.575885e+01
2.622905e+01
2.671733e+01
2.720613e+01
2.768417e+01
2.814562e+01
2.858848e+01
2.901307e+01
2.942086e+01
2.981375e+01
3.019353e+01
3.056166e+01
3.091909e+01
3.126618e+01
3.160270e+01
3.192784e+01
3.224026e+01
3.253809e+01
3.281904e+01
3.308044e+01
3.331930e+01
3.353243e+01
3.371655e+01
3.386849e+01
3.398535e+01
3.406471e+01
3.410485e+01
2.705522e+01
2.709795e+01
2.718774e+01
2.732964e+01
2.752496e+01
2.776901e+01
2.805208e+01
2.836228e+01
2.868846e+01
2.902194e+01
2.935698e+01
2.969036e+01
3.002071e+01
3.034784e+01
3.067214e+01
3.099417e+01
3.131439e+01
3.163292e+01
3.194945e+01
3.226312e+01
3.257247e+01
3.287548e+01
3.316952e+01
3.345142e+01
3.371756e+01
3.396390e+01
3.418616e+01
3.438000e+01
3.454118e+01
3.466589e+01
3.475095e+01
3.479407e+01
3.091093e+01
3.091226e+01
3.091670e+01
3.092691e+01
3.094510e+01
3.097227e+01
3.100805e+01
3.105130e+01
3.110084e+01
3.115591e+01
3.121640e+01
3.128276e+01
3.135581e+01
3.143656e+01
3.152606e+01
3.162524e+01
3.173484e+01
3.185530e+01
3.198668e+01
3.212855e+01
3.227996e+01
3.243929e+01
3.260431e+01
3.277205e+01
3.293889e+01
3.310056e+01
3.325235e+01
3.338926e+01
3.350629e+01
3.359881e+01
3.366288e+01
3.369567e+01
3.703529e+01
3.701724e+01
3.697462e+01
3.689658e+01
3.677153e+01
3.659045e+01
3.634896e+01
3.604783e+01
3.569197e+01
3.528894e+01
3.484734e+01
3.437554e+01
3.388099e+01
3.336996e+01
3.284751e+01
3.231782e+01
3.178438e+01
3.125040e+01
3.071903e+01
3.019362e+01
2.967789e+01
2.917602e+01
2.869275e+01
2.823334e+01
2.780349e+01
2.740921e+01
2.705664e+01
2.675178e+01
2.650022e+01
2.630686e+01
2.617564e+01
2.610932e+01
</DataArray>
<DataArray type='Float32' Name='dTdx' Format='ascii'> 
3.123268e-02
8.912291e-02
1.348023e-01
1.643189e-01
1.777379e-01
1.779854e-01
1.691746e-01
1.552251e-01
1.391230e-01
1.227709e-01
1.071828e-01
9.278253e-02
7.966475e-02
6.777596e-02
5.702280e-02
4.733228e-02
3.868490e-02
3.113568e-02
2.483027e-02
2.002407e-02
1.709907e-02
1.659413e-02
1.920224e-02
2.579768e-02
3.727823e-02
5.453400e-02
7.772782e-02
1.064322e-01
1.373347e-01
1.675831e-01
1.798522e-01
8.857214e-02
6.348076e-02
1.809966e-01
2.738851e-01
3.353665e-01
3.665946e-01
3.732781e-01
3.624602e-01
3.406103e-01
3.128040e-01
2.825668e-01
2.520812e-01
2.225461e-01
1.945376e-01
1.682960e-01
1.439242e-01
1.215161e-01
1.012356e-01
8.336911e-02
6.836295e-02
5.686166e-02
4.974316e-02
4.819498e-02
5.375530e-02
6.849415e-02
9.489250e-02
1.361543e-01
1.948191e-01
2.731552e-01
3.658383e-01
4.673311e-01
5.223895e-01
2.623214e-01
7.143190e-02
1.992417e-01
2.901304e-01
3.396820e-01
3.569256e-01
3.544875e-01
3.419712e-01
3.246627e-01
3.049167e-01
2.837110e-01
2.615373e-01
2.387576e-01
2.157130e-01
1.927557e-01
1.702677e-01
1.486779e-01
1.284770e-01
1.102279e-01
9.456978e-02
8.223005e-02
7.405149e-02
7.109867e-02
7.482619e-02
8.754731e-02
1.128760e-01
1.569801e-01
2.280854e-01
3.376239e-01
4.882904e-01
6.803579e-01
8.123651e-01
4.191496e-01
1.003380e-01
2.719499e-01
3.735980e-01
4.008248e-01
3.768859e-01
3.313080e-01
2.851120e-01
2.477913e-01
2.207940e-01
2.018749e-01
1.879687e-01
1.765062e-01
1.657757e-01
1.548599e-01
1.434446e-01
1.316244e-01
1.197412e-01
1.082597e-01
9.767419e-02
8.845723e-02
8.106799e-02
7.608189e-02
7.448184e-02
7.833640e-02
9.183144e-02
1.234956e-01
1.878642e-01
3.086346e-01
5.055735e-01
7.952702e-01
1.021828e+00
5.403086e-01
1.489999e-01
3.987160e-01
5.331805e-01
5.471911e-01
4.809775e-01
3.836812e-01
2.898379e-01
2.154233e-01
1.635362e-01
1.309419e-01
1.124103e-01
1.029125e-01
9.846924e-02
9.630110e-02
9.467359e-02
9.264011e-02
8.977895e-02
8.596601e-02
8.120362e-02
7.552348e-02
6.898254e-02
6.178301e-02
5.455750e-02
4.899660e-02
4.910841e-02
6.408378e-02
1.127240e-01
2.297231e-01
4.568029e-01
8.324717e-01
1.143081e+00
6.147347e-01
2.058619e-01
5.445132e-01
7.120208e-01
7.079053e-01
5.978098e-01
4.536238e-01
3.205330e-01
2.163483e-01
1.428569e-01
9.533430e-02
6.748452e-02
5.340717e-02
4.822315e-02
4.818101e-02
5.055864e-02
5.347776e-02
5.569037e-02
5.638060e-02
5.501566e-02
5.126580e-02
4.499215e-02
3.628690e-02
2.558212e-02
1.400786e-02
4.574666e-03
5.494997e-03
3.731538e-02
1.428521e-01
3.862319e-01
8.238667e-01
1.187475e+00
6.431996e-01
2.699104e-01
7.034902e-01
8.941852e-01
8.546017e-01
6.888143e-01
4.974258e-01
3.340991e-01
2.130950e-01
1.302342e-01
7.669211e-02
4.434705e-02
2.684942e-02
1.937103e-02
1.820939e-02
2.051062e-02
2.409157e-02
2.731473e-02
2.900022e-02
2.837439e-02
2.504003e-02
1.892430e-02
1.015632e-02
-1.095760e-03
-1.456783e-02
-2.883432e-02
-3.749390e-02
-1.984626e-02
7.284396e-02
3.237693e-01
7.956007e-01
1.175272e+00
6.349948e-01
3.411685e-01
8.740933e-01
1.074702e+00
9.802508e-01
7.473564e-01
5.088471e-01
3.225619e-01
1.943848e-01
1.114833e-01
5.975800e-02
2.874855e-02
1.150374e-02
3.385706e-03
1.095595e-03
2.113010e-03
4.440842e-03
6.526715e-03
7.272343e-03
6.062460e-03
2.737913e-03
-2.564515e-03
-9.736112e-03
-1.908726e-02
-3.145275e-02
-4.710613e-02
-6.142161e-02
-5.399609e-02
2.853848e-02
2.820662e-01
7.622389e-01
1.126645e+00
6.023692e-01
4.187877e-01
1.052901e+00
1.247980e+00
1.081219e+00
7.755590e-01
4.950616e-01
2.942310e-01
1.659986e-01
8.814393e-02
4.194646e-02
1.515058e-02
3.648962e-04
-6.890497e-03
-9.537988e-03
-9.689002e-03
-8.960362e-03
-8.535917e-03
-9.120128e-03
-1.091335e-02
-1.372040e-02
-1.725482e-02
-2.160836e-02
-2.772429e-02
-3.748999e-02
-5.251141e-02
-6.934835e-02
-6.764375e-02
9.332684e-03
2.620287e-01
7.292737e-01
1.057318e+00
5.562441e-01
5.006970e-01
1.234542e+00
1.409054e+00
1.158278e+00
7.815700e-01
4.681299e-01
2.606648e-01
1.366478e-01
6.558000e-02
2.556899e-02
3.376249e-03
-8.548943e-03
-1.452299e-02
-1.716686e-02
-1.822053e-02
-1.887589e-02
-1.984337e-02
-2.133737e-02
-2.313185e-02
-2.478034e-02
-2.601229e-02
-2.722895e-02
-2.992980e-02
-3.670589e-02
-4.985779e-02
-6.636747e-02
-6.556600e-02
1.066668e-02
2.591935e-01
6.975542e-01
9.777897e-01
5.043440e-01
5.831619e-01
1.411359e+00
1.554197e+00
1.216895e+00
7.779414e-01
4.415703e-01
2.323335e-01
1.131682e-01
4.787558e-02
1.283260e-02
-5.700979e-03
-1.535186e-02
-2.031665e-02
-2.298105e-02
-2.475964e-02
-2.644504e-02
-2.831491e-02
-3.019187e-02
-3.158566e-02
-3.196940e-02
-3.117130e-02
-2.981257e-02
-2.965346e-02
-3.349589e-02
-4.368368e-02
-5.696918e-02
-5.233297e-02
2.707326e-02
2.678282e-01
6.662570e-01
8.941570e-01
4.511754e-01
6.607302e-01
1.573816e+00
1.681578e+00
1.266252e+00
7.786767e-01
4.273596e-01
2.170009e-01
1.000333e-01
3.755134e-02
5.152970e-03
-1.132682e-02
-1.971005e-02
-2.419744e-02
-2.703716e-02
-2.940532e-02
-3.180344e-02
-3.423092e-02
-3.631026e-02
-3.746092e-02
-3.715319e-02
-3.523766e-02
-3.231764e-02
-3.004560e-02
-3.097122e-02
-3.696923e-02
-4.417097e-02
-3.162716e-02
5.338250e-02
2.826249e-01
6.340694e-01
8.093605e-01
3.988612e-01
7.265589e-01
1.711119e+00
1.790785e+00
1.316741e+00
7.962131e-01
4.345062e-01
2.200827e-01
1.004828e-01
3.664601e-02
3.857395e-03
-1.260519e-02
-2.097605e-02
-2.565257e-02
-2.890834e-02
-3.184032e-02
-3.483735e-02
-3.781231e-02
-4.035269e-02
-4.187172e-02
-4.180356e-02
-3.986978e-02
-3.640889e-02
-3.264757e-02
-3.051948e-02
-3.108705e-02
-2.976402e-02
-6.466926e-03
8.487148e-02
2.988956e-01
5.993784e-01
7.243455e-01
3.481135e-01
7.732482e-01
1.811970e+00
1.881156e+00
1.376617e+00
8.391625e-01
4.690097e-01
2.458640e-01
1.178750e-01
4.779169e-02
1.095557e-02
-8.006502e-03
-1.796618e-02
-2.375855e-02
-2.790651e-02
-3.163658e-02
-3.541687e-02
-3.922959e-02
-4.272024e-02
-4.531234e-02
-4.635144e-02
-4.532280e-02
-4.213967e-02
-3.738092e-02
-3.209969e-02
-2.634811e-02
-1.497008e-02
2.028012e-02
1.169624e-01
3.122142e-01
5.602362e-01
6.390416e-01
2.990335e-01
7.941750e-01
1.865549e+00
1.949478e+00
1.448796e+00
9.109092e-01
5.340490e-01
2.981630e-01
1.563437e-01
7.483156e-02