<VTKFile type='UnstructuredGrid' version='0.1' byte_order='BigEndian'> 
<UnstructuredGrid> 
<Piece NumberOfPoints='  1701 ' NumberOfCells='   400 '> 
<Points> 
<DataArray type='Float32' NumberOfComponents='3' Format='ascii'> 
0.000000e+00 0.000000e+00 0.000000e+00 
1.600000e+03 0.000000e+00 0.000000e+00 
3.200000e+03 0.000000e+00 0.000000e+00 
4.800000e+03 0.000000e+00 0.000000e+00 
6.400000e+03 0.000000e+00 0.000000e+00 
8.000000e+03 0.000000e+00 0.000000e+00 
9.600000e+03 0.000000e+00 0.000000e+00 
1.120000e+04 0.000000e+00 0.000000e+00 
1.280000e+04 0.000000e+00 0.000000e+00 
1.440000e+04 0.000000e+00 0.000000e+00 
1.600000e+04 0.000000e+00 0.000000e+00 
1.760000e+04 0.000000e+00 0.000000e+00 
1.920000e+04 0.000000e+00 0.000000e+00 
2.080000e+04 0.000000e+00 0.000000e+00 
2.240000e+04 0.000000e+00 0.000000e+00 
2.400000e+04 0.000000e+00 0.000000e+00 
2.560000e+04 0.000000e+00 0.000000e+00 
2.720000e+04 0.000000e+00 0.000000e+00 
2.880000e+04 0.000000e+00 0.000000e+00 
3.040000e+04 0.000000e+00 0.000000e+00 
3.200000e+04 0.000000e+00 0.000000e+00 
3.360000e+04 0.000000e+00 0.000000e+00 
3.520000e+04 0.000000e+00 0.000000e+00 
3.680000e+04 0.000000e+00 0.000000e+00 
3.840000e+04 0.000000e+00 0.000000e+00 
4.000000e+04 0.000000e+00 0.000000e+00 
4.160000e+04 0.000000e+00 0.000000e+00 
4.320000e+04 0.000000e+00 0.000000e+00 
4.480000e+04 0.000000e+00 0.000000e+00 
4.640000e+04 0.000000e+00 0.000000e+00 
4.800000e+04 0.000000e+00 0.000000e+00 
4.960000e+04 0.000000e+00 0.000000e+00 
5.120000e+04 0.000000e+00 0.000000e+00 
5.280000e+04 0.000000e+00 0.000000e+00 
5.440000e+04 0.000000e+00 0.000000e+00 
5.600000e+04 0.000000e+00 0.000000e+00 
5.760000e+04 0.000000e+00 0.000000e+00 
5.920000e+04 0.000000e+00 0.000000e+00 
6.080000e+04 0.000000e+00 0.000000e+00 
6.240000e+04 0.000000e+00 0.000000e+00 
6.400000e+04 0.000000e+00 0.000000e+00 
6.560000e+04 0.000000e+00 0.000000e+00 
6.720000e+04 0.000000e+00 0.000000e+00 
6.880000e+04 0.000000e+00 0.000000e+00 
7.040000e+04 0.000000e+00 0.000000e+00 
7.200000e+04 0.000000e+00 0.000000e+00 
7.360000e+04 0.000000e+00 0.000000e+00 
7.520000e+04 0.000000e+00 0.000000e+00 
7.680000e+04 0.000000e+00 0.000000e+00 
7.840000e+04 0.000000e+00 0.000000e+00 
8.000000e+04 0.000000e+00 0.000000e+00 
8.160000e+04 0.000000e+00 0.000000e+00 
8.320000e+04 0.000000e+00 0.000000e+00 
8.480000e+04 0.000000e+00 0.000000e+00 
8.640000e+04 0.000000e+00 0.000000e+00 
8.800000e+04 0.000000e+00 0.000000e+00 
8.960000e+04 0.000000e+00 0.000000e+00 
9.120000e+04 0.000000e+00 0.000000e+00 
9.280000e+04 0.000000e+00 0.000000e+00 
9.440000e+04 0.000000e+00 0.000000e+00 
9.600000e+04 0.000000e+00 0.000000e+00 
9.760000e+04 0.000000e+00 0.000000e+00 
9.920000e+04 0.000000e+00 0.000000e+00 
1.008000e+05 0.000000e+00 0.000000e+00 
1.024000e+05 0.000000e+00 0.000000e+00 
1.040000e+05 0.000000e+00 0.000000e+00 
1.056000e+05 0.000000e+00 0.000000e+00 
1.072000e+05 0.000000e+00 0.000000e+00 
1.088000e+05 0.000000e+00 0.000000e+00 
1.104000e+05 0.000000e+00 0.000000e+00 
1.120000e+05 0.000000e+00 0.000000e+00 
1.136000e+05 0.000000e+00 0.000000e+00 
1.152000e+05 0.000000e+00 0.000000e+00 
1.168000e+05 0.000000e+00 0.000000e+00 
1.184000e+05 0.000000e+00 0.000000e+00 
1.200000e+05 0.000000e+00 0.000000e+00 
1.216000e+05 0.000000e+00 0.000000e+00 
1.232000e+05 0.000000e+00 0.000000e+00 
1.248000e+05 0.000000e+00 0.000000e+00 
1.264000e+05 0.000000e+00 0.000000e+00 
1.280000e+05 0.000000e+00 0.000000e+00 
0.000000e+00 1.664632e+03 0.000000e+00 
1.600000e+03 1.664486e+03 0.000000e+00 
3.200000e+03 1.664045e+03 0.000000e+00 
4.800000e+03 1.663311e+03 0.000000e+00 
6.400000e+03 1.662280e+03 0.000000e+00 
8.000000e+03 1.660951e+03 0.000000e+00 
9.600000e+03 1.659323e+03 0.000000e+00 
1.120000e+04 1.657391e+03 0.000000e+00 
1.280000e+04 1.655154e+03 0.000000e+00 
1.440000e+04 1.652609e+03 0.000000e+00 
1.600000e+04 1.649753e+03 0.000000e+00 
1.760000e+04 1.646586e+03 0.000000e+00 
1.920000e+04 1.643106e+03 0.000000e+00 
2.080000e+04 1.639313e+03 0.000000e+00 
2.240000e+04 1.635210e+03 0.000000e+00 
2.400000e+04 1.630800e+03 0.000000e+00 
2.560000e+04 1.626090e+03 0.000000e+00 
2.720000e+04 1.621089e+03 0.000000e+00 
2.880000e+04 1.615809e+03 0.000000e+00 
3.040000e+04 1.610266e+03 0.000000e+00 
3.200000e+04 1.604481e+03 0.000000e+00 
3.360000e+04 1.598477e+03 0.000000e+00 
3.520000e+04 1.592284e+03 0.000000e+00 
3.680000e+04 1.585937e+03 0.000000e+00 
3.840000e+04 1.579475e+03 0.000000e+00 
4.000000e+04 1.572943e+03 0.000000e+00 
4.160000e+04 1.566393e+03 0.000000e+00 
4.320000e+04 1.559880e+03 0.000000e+00 
4.480000e+04 1.553463e+03 0.000000e+00 
4.640000e+04 1.547206e+03 0.000000e+00 
4.800000e+04 1.541177e+03 0.000000e+00 
4.960000e+04 1.535445e+03 0.000000e+00 
5.120000e+04 1.530079e+03 0.000000e+00 
5.280000e+04 1.525148e+03 0.000000e+00 
5.440000e+04 1.520718e+03 0.000000e+00 
5.600000e+04 1.516851e+03 0.000000e+00 
5.760000e+04 1.513604e+03 0.000000e+00 
5.920000e+04 1.511025e+03 0.000000e+00 
6.080000e+04 1.509153e+03 0.000000e+00 
6.240000e+04 1.508018e+03 0.000000e+00 
6.400000e+04 1.507637e+03 0.000000e+00 
6.560000e+04 1.508018e+03 0.000000e+00 
6.720000e+04 1.509153e+03 0.000000e+00 
6.880000e+04 1.511025e+03 0.000000e+00 
7.040000e+04 1.513604e+03 0.000000e+00 
7.200000e+04 1.516851e+03 0.000000e+00 
7.360000e+04 1.520718e+03 0.000000e+00 
7.520000e+04 1.525148e+03 0.000000e+00 
7.680000e+04 1.530079e+03 0.000000e+00 
7.840000e+04 1.535445e+03 0.000000e+00 
8.000000e+04 1.541177e+03 0.000000e+00 
8.160000e+04 1.547206e+03 0.000000e+00 
8.320000e+04 1.553463e+03 0.000000e+00 
8.480000e+04 1.559880e+03 0.000000e+00 
8.640000e+04 1.566393e+03 0.000000e+00 
8.800000e+04 1.572943e+03 0.000000e+00 
8.960000e+04 1.579475e+03 0.000000e+00 
9.120000e+04 1.585937e+03 0.000000e+00 
9.280000e+04 1.592284e+03 0.000000e+00 
9.440000e+04 1.598477e+03 0.000000e+00 
9.600000e+04 1.604481e+03 0.000000e+00 
9.760000e+04 1.610266e+03 0.000000e+00 
9.920000e+04 1.615809e+03 0.000000e+00 
1.008000e+05 1.621089e+03 0.000000e+00 
1.024000e+05 1.626090e+03 0.000000e+00 
1.040000e+05 1.630800e+03 0.000000e+00 
1.056000e+05 1.635210e+03 0.000000e+00 
1.072000e+05 1.639313e+03 0.000000e+00 
1.088000e+05 1.643106e+03 0.000000e+00 
1.104000e+05 1.646586e+03 0.000000e+00 
1.120000e+05 1.649753e+03 0.000000e+00 
1.136000e+05 1.652609e+03 0.000000e+00 
1.152000e+05 1.655154e+03 0.000000e+00 
1.168000e+05 1.657391e+03 0.000000e+00 
1.184000e+05 1.659323e+03 0.000000e+00 
1.200000e+05 1.660951e+03 0.000000e+00 
1.216000e+05 1.662280e+03 0.000000e+00 
1.232000e+05 1.663311e+03 0.000000e+00 
1.248000e+05 1.664045e+03 0.000000e+00 
1.264000e+05 1.664486e+03 0.000000e+00 
1.280000e+05 1.664632e+03 0.000000e+00 
0.000000e+00 3.329570e+03 0.000000e+00 
1.600000e+03 3.329277e+03 0.000000e+00 
3.200000e+03 3.328397e+03 0.000000e+00 
4.800000e+03 3.326929e+03 0.000000e+00 
6.400000e+03 3.324870e+03 0.000000e+00 
8.000000e+03 3.322216e+03 0.000000e+00 
9.600000e+03 3.318961e+03 0.000000e+00 
1.120000e+04 3.315101e+03 0.000000e+00 
1.280000e+04 3.310630e+03 0.000000e+00 
1.440000e+04 3.305543e+03 0.000000e+00 
1.600000e+04 3.299834e+03 0.000000e+00 
1.760000e+04 3.293501e+03 0.000000e+00 
1.920000e+04 3.286541e+03 0.000000e+00 
2.080000e+04 3.278954e+03 0.000000e+00 
2.240000e+04 3.270745e+03 0.000000e+00 
2.400000e+04 3.261920e+03 0.000000e+00 
2.560000e+04 3.252492e+03 0.000000e+00 
2.720000e+04 3.242478e+03 0.000000e+00 
2.880000e+04 3.231903e+03 0.000000e+00 
3.040000e+04 3.220798e+03 0.000000e+00 
3.200000e+04 3.209203e+03 0.000000e+00 
3.360000e+04 3.197166e+03 0.000000e+00 
3.520000e+04 3.184747e+03 0.000000e+00 
3.680000e+04 3.172013e+03 0.000000e+00 
3.840000e+04 3.159045e+03 0.000000e+00 
4.000000e+04 3.145933e+03 0.000000e+00 
4.160000e+04 3.132778e+03 0.000000e+00 
4.320000e+04 3.119691e+03 0.000000e+00 
4.480000e+04 3.106794e+03 0.000000e+00 
4.640000e+04 3.094216e+03 0.000000e+00 
4.800000e+04 3.082090e+03 0.000000e+00 
4.960000e+04 3.070557e+03 0.000000e+00 
5.120000e+04 3.059758e+03 0.000000e+00 
5.280000e+04 3.049831e+03 0.000000e+00 
5.440000e+04 3.040910e+03 0.000000e+00 
5.600000e+04 3.033122e+03 0.000000e+00 
5.760000e+04 3.026579e+03 0.000000e+00 
5.920000e+04 3.021382e+03 0.000000e+00 
6.080000e+04 3.017610e+03 0.000000e+00 
6.240000e+04 3.015322e+03 0.000000e+00 
6.400000e+04 3.014555e+03 0.000000e+00 
6.560000e+04 3.015322e+03 0.000000e+00 
6.720000e+04 3.017610e+03 0.000000e+00 
6.880000e+04 3.021382e+03 0.000000e+00 
7.040000e+04 3.026579e+03 0.000000e+00 
7.200000e+04 3.033122e+03 0.000000e+00 
7.360000e+04 3.040910e+03 0.000000e+00 
7.520000e+04 3.049831e+03 0.000000e+00 
7.680000e+04 3.059758e+03 0.000000e+00 
7.840000e+04 3.070557e+03 0.000000e+00 
8.000000e+04 3.082090e+03 0.000000e+00 
8.160000e+04 3.094216e+03 0.000000e+00 
8.320000e+04 3.106794e+03 0.000000e+00 
8.480000e+04 3.119691e+03 0.000000e+00 
8.640000e+04 3.132778e+03 0.000000e+00 
8.800000e+04 3.145933e+03 0.000000e+00 
8.960000e+04 3.159045e+03 0.000000e+00 
9.120000e+04 3.172013e+03 0.000000e+00 
9.280000e+04 3.184747e+03 0.000000e+00 
9.440000e+04 3.197166e+03 0.000000e+00 
9.600000e+04 3.209203e+03 0.000000e+00 
9.760000e+04 3.220798e+03 0.000000e+00 
9.920000e+04 3.231903e+03 0.000000e+00 
1.008000e+05 3.242478e+03 0.000000e+00 
1.024000e+05 3.252492e+03 0.000000e+00 
1.040000e+05 3.261920e+03 0.000000e+00 
1.056000e+05 3.270745e+03 0.000000e+00 
1.072000e+05 3.278954e+03 0.000000e+00 
1.088000e+05 3.286541e+03 0.000000e+00 
1.104000e+05 3.293501e+03 0.000000e+00 
1.120000e+05 3.299834e+03 0.000000e+00 
1.136000e+05 3.305543e+03 0.000000e+00 
1.152000e+05 3.310630e+03 0.000000e+00 
1.168000e+05 3.315101e+03 0.000000e+00 
1.184000e+05 3.318961e+03 0.000000e+00 
1.200000e+05 3.322216e+03 0.000000e+00 
1.216000e+05 3.324870e+03 0.000000e+00 
1.232000e+05 3.326929e+03 0.000000e+00 
1.248000e+05 3.328397e+03 0.000000e+00 
1.264000e+05 3.329277e+03 0.000000e+00 
1.280000e+05 3.329570e+03 0.000000e+00 
0.000000e+00 4.995117e+03 0.000000e+00 
[...]
<CellData Scalars='scalars'>
<DataArray type='Float32' Name='volume' Format='ascii'> 
1.065337e+07 
1.064586e+07 
1.063077e+07 
1.060800e+07 
1.057741e+07 
1.053887e+07 
1.049232e+07 
1.043782e+07 
1.037563e+07 
1.030629e+07 
1.023073e+07 
1.015032e+07 
1.006696e+07 
9.983113e+06 
9.901732e+06 
9.826175e+06 
9.759995e+06 
9.706654e+06 
9.669182e+06 
9.649842e+06 
9.649842e+06 
9.669182e+06 
9.706654e+06 
9.759995e+06 
9.826175e+06 
9.901732e+06 
9.983113e+06 
1.006696e+07 
1.015032e+07 
1.023073e+07 
1.030629e+07 
1.037563e+07 
1.043782e+07 
1.049232e+07 
1.053887e+07 
1.057741e+07 
1.060800e+07 
1.063077e+07 
1.064586e+07 
1.065337e+07 
1.066119e+07 
1.065374e+07 
1.063879e+07 
1.061618e+07 
1.058575e+07 
1.054732e+07 
1.050076e+07 
1.044605e+07 
1.038337e+07 
1.031316e+07 
1.023627e+07 
1.015399e+07 
1.006823e+07 
9.981448e+06 
9.896738e+06 
9.817658e+06 
9.748044e+06 
9.691695e+06 
9.651982e+06 
9.631442e+06 
9.631442e+06 
9.651982e+06 
9.691695e+06 
9.748044e+06 
9.817658e+06 
9.896738e+06 
9.981448e+06 
1.006823e+07 
1.015399e+07 
1.023627e+07 
1.031316e+07 
1.038337e+07 
1.044605e+07 
1.050076e+07 
1.054732e+07 
1.058575e+07 
1.061618e+07 
1.063879e+07 
1.065374e+07 
1.066119e+07 
1.067676e+07 
1.066947e+07 
1.065479e+07 
1.063255e+07 
1.060250e+07 
1.056435e+07 
1.051786e+07 
1.046283e+07 
1.039927e+07 
1.032742e+07 
1.024793e+07 
1.016198e+07 
1.007136e+07 
9.978627e+06 
9.887071e+06 
9.800671e+06 
9.723862e+06 
9.661167e+06 
9.616699e+06 
9.593607e+06 
9.593607e+06 
9.616699e+06 
9.661167e+06 
9.723862e+06 
9.800671e+06 
9.887071e+06 
9.978627e+06 
1.007136e+07 
1.016198e+07 
1.024793e+07 
1.032742e+07 
1.039927e+07 
1.046283e+07 
1.051786e+07 
1.056435e+07 
1.060250e+07 
1.063255e+07 
1.065479e+07 
1.066947e+07 
1.067676e+07 
1.069995e+07 
1.069292e+07 
1.067873e+07 
1.065714e+07 
1.062778e+07 
1.059024e+07 
1.054404e+07 
1.048878e+07 
1.042415e+07 
1.035009e+07 
1.026694e+07 
1.017559e+07 
1.007767e+07 
9.975773e+06 
9.873477e+06 
9.775395e+06 
9.686931e+06 
9.613830e+06 
9.561490e+06 
9.534149e+06 
9.534149e+06 
9.561490e+06 
9.613830e+06 
9.686931e+06 
9.775395e+06 
9.873477e+06 
9.975773e+06 
1.007767e+07 
1.017559e+07 
1.026694e+07 
1.035009e+07 
1.042415e+07 
1.048878e+07 
1.054404e+07 
1.059024e+07 
1.062778e+07 
1.065714e+07 
1.067873e+07 
1.069292e+07 
1.069995e+07 
1.073054e+07 
1.072391e+07 
1.071048e+07 
1.068992e+07 
1.066174e+07 
1.062531e+07 
1.057992e+07 
1.052481e+07 
1.045928e+07 
1.038281e+07 
1.029523e+07 
1.019697e+07 
1.008935e+07 
9.974848e+06 
9.857360e+06 
9.742334e+06 
9.636592e+06 
9.547780e+06 
9.483389e+06 
9.449486e+06 
9.449486e+06 
9.483389e+06 
9.547780e+06 
9.636592e+06 
9.742334e+06 
9.857360e+06 
9.974848e+06 
1.008935e+07 
1.019697e+07 
1.029523e+07 
1.038281e+07 
1.045928e+07 
1.052481e+07 
1.057992e+07 
1.062531e+07 
1.066174e+07 
1.068992e+07 
1.071048e+07 
1.072391e+07 
1.073054e+07 
1.076816e+07 
1.076211e+07 
1.074980e+07 
1.073080e+07 
1.070447e+07 
1.066995e+07 
1.062621e+07 
1.057208e+07 
1.050632e+07 
1.042776e+07 
1.033552e+07 
1.022930e+07 
1.010976e+07 
9.979038e+06 
9.841209e+06 
9.702697e+06 
9.572269e+06 
9.460436e+06 
9.378044e+06 
9.334218e+06 
9.334218e+06 
9.378044e+06 
9.460436e+06 
9.572269e+06 
9.702697e+06 
9.841209e+06 
9.979038e+06 
1.010976e+07 
1.022930e+07 
1.033552e+07 
1.042776e+07 
1.050632e+07 
1.057208e+07 
1.062621e+07 
1.066995e+07 
1.070447e+07 
1.073080e+07 
1.074980e+07 
1.076211e+07 
1.076816e+07 
1.081225e+07 
1.080701e+07 
1.079628e+07 
1.077954e+07 
1.075596e+07 
1.072447e+07 
1.068368e+07 
1.063191e+07 
1.056727e+07 
1.048776e+07 
1.039148e+07 
1.027699e+07 
1.014386e+07 
9.993332e+06 
9.829295e+06 
9.659078e+06 
9.493948e+06 
9.348626e+06 
9.239348e+06 
9.180451e+06 
9.180451e+06 
9.239348e+06 
9.348626e+06 
9.493948e+06 
9.659078e+06 
9.829295e+06 
9.993332e+06 
1.014386e+07 
1.027699e+07 
1.039148e+07 
1.048776e+07 
1.056727e+07 
1.063191e+07 
1.068368e+07 
1.072447e+07 
1.075596e+07 
1.077954e+07 
1.079628e+07 
1.080701e+07 
1.081225e+07 
1.086203e+07 
1.085788e+07 
1.084928e+07 
1.083564e+07 
1.081599e+07 
1.078902e+07 
1.075297e+07 
1.070564e+07 
1.064437e+07 
1.056614e+07 
1.046770e+07 
1.034596e+07 
1.019867e+07 
1.002536e+07 
9.828795e+06 
9.616693e+06 
9.403167e+06 
9.208949e+06 
9.058985e+06 
8.976750e+06 
8.976750e+06 
9.058985e+06 
9.208949e+06 
9.403167e+06 
9.616693e+06 
9.828795e+06 
1.002536e+07 
1.019867e+07 
1.034596e+07 
1.046770e+07 
1.056614e+07 
1.064437e+07 
1.070564e+07 
1.075297e+07 
1.078902e+07 
1.081599e+07 
1.083564e+07 
1.084928e+07 
1.085788e+07 
1.086203e+07 
1.091641e+07 
1.091366e+07 
1.090783e+07 
1.089828e+07 
1.088397e+07 
1.086338e+07 
1.083443e+07 
1.079442e+07 
1.073988e+07 
1.066659e+07 
1.056965e+07 
1.044376e+07 
1.028388e+07 
1.008646e+07 
9.851491e+06 
9.585513e+06 
9.305044e+06 
9.038873e+06 
8.826026e+06 
8.706543e+06 
8.706543e+06 
8.826026e+06 
9.038873e+06 
9.305044e+06 
9.585513e+06 
9.851491e+06 
1.008646e+07 
1.028388e+07 
1.044376e+07 
1.056965e+07 
1.066659e+07 
1.073988e+07 
1.079442e+07 
1.083443e+07 
1.086338e+07 
1.088397e+07 
1.089828e+07 
1.090783e+07 
1.091366e+07 
1.091641e+07 
1.097398e+07 
1.097294e+07 
1.097057e+07 
1.096622e+07 
1.095882e+07 
1.094680e+07 
1.092786e+07 
1.089887e+07 
1.085563e+07 
1.079271e+07 
1.070333e+07 
1.057942e+07 
1.041210e+07 
1.019287e+07 
9.916133e+06 
9.583845e+06 
9.212332e+06 
8.839635e+06 
8.527082e+06 
8.345745e+06 
8.345745e+06 
8.527082e+06 
8.839635e+06 
9.212332e+06 
9.583845e+06 
9.916133e+06 
1.019287e+07 
1.041210e+07 
1.057942e+07 
1.070333e+07 
1.079271e+07 
1.085563e+07 
1.089887e+07 
1.092786e+07 
1.094680e+07 
1.095882e+07 
1.096622e+07 
1.097057e+07 
1.097294e+07 
1.097398e+07 
</DataArray>
</CellData>
<PointData Scalars='scalars'>
<DataArray type='Float32' NumberOfComponents='3' Name='velocity (cm/year)' Format='ascii'> 
-1.000000e+00 5.000000e-01 0.000000e+00 
-1.000000e+00 5.000000e-01 0.000000e+00 
-1.000000e+00 5.000000e-01 0.000000e+00 
-1.000000e+00 5.000000e-01 0.000000e+00 
-1.000000e+00 5.000000e-01 0.000000e+00 
-1.000000e+00 5.000000e-01 0.000000e+00 
-1.000000e+00 5.000000e-01 0.000000e+00 
-1.000000e+00 5.000000e-01 0.000000e+00 
-1.000000e+00 5.000000e-01 0.000000e+00 
-1.000000e+00 5.000000e-01 0.000000e+00 
-1.000000e+00 5.000000e-01 0.000000e+00 
-1.000000e+00 5.000000e-01 0.000000e+00 
-1.000000e+00 5.000000e-01 0.000000e+00 
-1.000000e+00 5.000000e-01 0.000000e+00 
-1.000000e+00 5.000000e-01 0.000000e+00 
-1.000000e+00 5.000000e-01 0.000000e+00 
-1.000000e+00 5.000000e-01 0.000000e+00 
-1.000000e+00 5.000000e-01 0.000000e+00 
-1.000000e+00 5.000000e-01 0.000000e+00 
-1.000000e+00 5.000000e-01 0.000000e+00 
-1.000000e+00 5.000000e-01 0.000000e+00 
-1.000000e+00 5.000000e-01 0.000000e+00 
-1.000000e+00 5.000000e-01 0.000000e+00 
-1.000000e+00 5.000000e-01 0.000000e+00 
-1.000000e+00 5.000000e-01 0.000000e+00 
-1.000000e+00 5.000000e-01 0.000000e+00 
-1.000000e+00 5.000000e-01 0.000000e+00 
-1.000000e+00 5.000000e-01 0.000000e+00 
-1.000000e+00 5.000000e-01 0.000000e+00 
-1.000000e+00 5.000000e-01 0.000000e+00 
-1.000000e+00 5.000000e-01 0.000000e+00 
-1.000000e+00 5.000000e-01 0.000000e+00 
-1.000000e+00 5.000000e-01 0.000000e+00 
-1.000000e+00 5.000000e-01 0.000000e+00 
-1.000000e+00 5.000000e-01 0.000000e+00 
-1.000000e+00 5.000000e-01 0.000000e+00 
-1.000000e+00 5.000000e-01 0.000000e+00 
-1.000000e+00 5.000000e-01 0.000000e+00 
-1.000000e+00 5.000000e-01 0.000000e+00 
-1.000000e+00 5.000000e-01 0.000000e+00 
0.000000e+00 5.000000e-01 0.000000e+00 
1.000000e+00 5.000000e-01 0.000000e+00 
1.000000e+00 5.000000e-01 0.000000e+00 
1.000000e+00 5.000000e-01 0.000000e+00 
1.000000e+00 5.000000e-01 0.000000e+00 
1.000000e+00 5.000000e-01 0.000000e+00 
1.000000e+00 5.000000e-01 0.000000e+00 
1.000000e+00 5.000000e-01 0.000000e+00 
1.000000e+00 5.000000e-01 0.000000e+00 
1.000000e+00 5.000000e-01 0.000000e+00 
1.000000e+00 5.000000e-01 0.000000e+00 
1.000000e+00 5.000000e-01 0.000000e+00 
1.000000e+00 5.000000e-01 0.000000e+00 
1.000000e+00 5.000000e-01 0.000000e+00 
1.000000e+00 5.000000e-01 0.000000e+00 
1.000000e+00 5.000000e-01 0.000000e+00 
1.000000e+00 5.000000e-01 0.000000e+00 
1.000000e+00 5.000000e-01 0.000000e+00 
1.000000e+00 5.000000e-01 0.000000e+00 
1.000000e+00 5.000000e-01 0.000000e+00 
1.000000e+00 5.000000e-01 0.000000e+00 
1.000000e+00 5.000000e-01 0.000000e+00 
1.000000e+00 5.000000e-01 0.000000e+00 
1.000000e+00 5.000000e-01 0.000000e+00 
1.000000e+00 5.000000e-01 0.000000e+00 
1.000000e+00 5.000000e-01 0.000000e+00 
1.000000e+00 5.000000e-01 0.000000e+00 
1.000000e+00 5.000000e-01 0.000000e+00 
1.000000e+00 5.000000e-01 0.000000e+00 
1.000000e+00 5.000000e-01 0.000000e+00 
1.000000e+00 5.000000e-01 0.000000e+00 
1.000000e+00 5.000000e-01 0.000000e+00 
1.000000e+00 5.000000e-01 0.000000e+00 
1.000000e+00 5.000000e-01 0.000000e+00 
1.000000e+00 5.000000e-01 0.000000e+00 
1.000000e+00 5.000000e-01 0.000000e+00 
1.000000e+00 5.000000e-01 0.000000e+00 
1.000000e+00 5.000000e-01 0.000000e+00 
1.000000e+00 5.000000e-01 0.000000e+00 
1.000000e+00 5.000000e-01 0.000000e+00 
1.000000e+00 5.000000e-01 0.000000e+00 
-1.000000e+00 4.987867e-01 0.000000e+00 
-9.976767e-01 4.987861e-01 0.000000e+00 
-9.953515e-01 4.987844e-01 0.000000e+00 
-9.930227e-01 4.987815e-01 0.000000e+00 
-9.906882e-01 4.987774e-01 0.000000e+00 
-9.883456e-01 4.987718e-01 0.000000e+00 
-9.859928e-01 4.987646e-01 0.000000e+00 
-9.836263e-01 4.987557e-01 0.000000e+00 
-9.812433e-01 4.987444e-01 0.000000e+00 
-9.788390e-01 4.987309e-01 0.000000e+00 
-9.764092e-01 4.987140e-01 0.000000e+00 
-9.739470e-01 4.986940e-01 0.000000e+00 
-9.714463e-01 4.986690e-01 0.000000e+00 
-9.688971e-01 4.986398e-01 0.000000e+00 
-9.662897e-01 4.986031e-01 0.000000e+00 
-9.636100e-01 4.985604e-01 0.000000e+00 
-9.608431e-01 4.985067e-01 0.000000e+00 
-9.579685e-01 4.984445e-01 0.000000e+00 
-9.549628e-01 4.983659e-01 0.000000e+00 
-9.517967e-01 4.982741e-01 0.000000e+00 
-9.484349e-01 4.981586e-01 0.000000e+00 
-9.448337e-01 4.980268e-01 0.000000e+00 
-9.409354e-01 4.978566e-01 0.000000e+00 
-9.366792e-01 4.976520e-01 0.000000e+00 
-9.319831e-01 4.973966e-01 0.000000e+00 
-9.267418e-01 4.971217e-01 0.000000e+00 
-9.207898e-01 4.967365e-01 0.000000e+00 
-9.140034e-01 4.962030e-01 0.000000e+00 
-9.062062e-01 4.955766e-01 0.000000e+00 
-8.970334e-01 4.950794e-01 0.000000e+00 
-8.857715e-01 4.940737e-01 0.000000e+00 
-8.722726e-01 4.919431e-01 0.000000e+00 
-8.563643e-01 4.898621e-01 0.000000e+00 
-8.357751e-01 4.899801e-01 0.000000e+00 
-8.050896e-01 4.860715e-01 0.000000e+00 
-7.657726e-01 4.705502e-01 0.000000e+00 
-7.190601e-01 4.571379e-01 0.000000e+00 
-6.423251e-01 4.658655e-01 0.000000e+00 
-4.621254e-01 4.207949e-01 0.000000e+00 
-1.811344e-01 1.355875e-01 0.000000e+00 
-1.191701e-14 -9.308155e-02 0.000000e+00 
1.811344e-01 1.355875e-01 0.000000e+00 
4.621254e-01 4.207949e-01 0.000000e+00 
6.423251e-01 4.658655e-01 0.000000e+00 
7.190601e-01 4.571379e-01 0.000000e+00 
7.657726e-01 4.705502e-01 0.000000e+00 
8.050896e-01 4.860715e-01 0.000000e+00 
8.357751e-01 4.899801e-01 0.000000e+00 
8.563643e-01 4.898621e-01 0.000000e+00 
8.722726e-01 4.919431e-01 0.000000e+00 
8.857715e-01 4.940737e-01 0.000000e+00 
8.970334e-01 4.950794e-01 0.000000e+00 
9.062062e-01 4.955766e-01 0.000000e+00 
9.140034e-01 4.962030e-01 0.000000e+00 
9.207898e-01 4.967365e-01 0.000000e+00 
9.267418e-01 4.971217e-01 0.000000e+00 
9.319831e-01 4.973966e-01 0.000000e+00 
9.366792e-01 4.976520e-01 0.000000e+00 
9.409354e-01 4.978566e-01 0.000000e+00 
9.448337e-01 4.980268e-01 0.000000e+00 
9.484349e-01 4.981586e-01 0.000000e+00 
9.517967e-01 4.982741e-01 0.000000e+00 
9.549628e-01 4.983659e-01 0.000000e+00 
9.579685e-01 4.984445e-01 0.000000e+00 
9.608431e-01 4.985067e-01 0.000000e+00 
9.636100e-01 4.985604e-01 0.000000e+00 
9.662897e-01 4.986031e-01 0.000000e+00 
9.688971e-01 4.986398e-01 0.000000e+00 
9.714463e-01 4.986690e-01 0.000000e+00 
9.739470e-01 4.986940e-01 0.000000e+00 
9.764092e-01 4.987140e-01 0.000000e+00 
9.788390e-01 4.987309e-01 0.000000e+00 
9.812433e-01 4.987444e-01 0.000000e+00 
9.836263e-01 4.987557e-01 0.000000e+00 
9.859928e-01 4.987646e-01 0.000000e+00 
9.883456e-01 4.987718e-01 0.000000e+00 
9.906882e-01 4.987774e-01 0.000000e+00 
9.930227e-01 4.987815e-01 0.000000e+00 
9.953515e-01 4.987844e-01 0.000000e+00 
9.976767e-01 4.987861e-01 0.000000e+00 
1.000000e+00 4.987867e-01 0.000000e+00 
-1.000000e+00 4.951850e-01 0.000000e+00 
-9.954093e-01 4.951826e-01 0.000000e+00 
-9.908145e-01 4.951755e-01 0.000000e+00 
-9.862117e-01 4.951634e-01 0.000000e+00 
-9.815964e-01 4.951459e-01 0.000000e+00 
-9.769636e-01 4.951226e-01 0.000000e+00 
-9.723082e-01 4.950925e-01 0.000000e+00 
-9.676238e-01 4.950550e-01 0.000000e+00 
-9.629034e-01 4.950084e-01 0.000000e+00 
-9.581381e-01 4.949519e-01 0.000000e+00 
-9.533183e-01 4.948828e-01 0.000000e+00 
-9.484315e-01 4.947999e-01 0.000000e+00 
-9.434634e-01 4.946989e-01 0.000000e+00 
-9.383963e-01 4.945782e-01 0.000000e+00 
-9.332090e-01 4.944316e-01 0.000000e+00 
-9.278759e-01 4.942566e-01 0.000000e+00 
-9.223653e-01 4.940439e-01 0.000000e+00 
-9.166401e-01 4.937903e-01 0.000000e+00 
-9.106532e-01 4.934816e-01 0.000000e+00 
-9.043502e-01 4.931129e-01 0.000000e+00 
-8.976594e-01 4.926639e-01 0.000000e+00 
-8.905018e-01 4.921271e-01 0.000000e+00 
-8.827717e-01 4.914691e-01 0.000000e+00 
-8.743496e-01 4.906768e-01 0.000000e+00 
-8.650623e-01 4.897057e-01 0.000000e+00 
-8.547350e-01 4.885334e-01 0.000000e+00 
-8.431239e-01 4.870571e-01 0.000000e+00 
-8.299325e-01 4.852243e-01 0.000000e+00 
-8.146451e-01 4.829456e-01 0.000000e+00 
-7.968302e-01 4.801257e-01 0.000000e+00 
-7.759070e-01 4.762441e-01 0.000000e+00 
-7.509134e-01 4.709583e-01 0.000000e+00 
-7.195223e-01 4.642901e-01 0.000000e+00 
-6.803675e-01 4.555762e-01 0.000000e+00 
-6.321295e-01 4.404747e-01 0.000000e+00 
-5.705115e-01 4.154048e-01 0.000000e+00 
-4.792384e-01 3.822428e-01 0.000000e+00 
-3.518400e-01 3.315592e-01 0.000000e+00 
-1.927108e-01 2.011781e-01 0.000000e+00 
-7.816603e-02 -1.484913e-02 0.000000e+00 
-1.220412e-14 -1.329850e-01 0.000000e+00 
7.816603e-02 -1.484913e-02 0.000000e+00 
1.927108e-01 2.011781e-01 0.000000e+00 
3.518400e-01 3.315592e-01 0.000000e+00 
4.792384e-01 3.822428e-01 0.000000e+00 
5.705115e-01 4.154048e-01 0.000000e+00 
6.321295e-01 4.404747e-01 0.000000e+00 
6.803675e-01 4.555762e-01 0.000000e+00 
7.195223e-01 4.642901e-01 0.000000e+00 
7.509134e-01 4.709583e-01 0.000000e+00 
7.759070e-01 4.762441e-01 0.000000e+00 
7.968302e-01 4.801257e-01 0.000000e+00 
8.146451e-01 4.829456e-01 0.000000e+00 
8.299325e-01 4.852243e-01 0.000000e+00 
8.431239e-01 4.870571e-01 0.000000e+00 
8.547350e-01 4.885334e-01 0.000000e+00 
8.650623e-01 4.897057e-01 0.000000e+00 
8.743496e-01 4.906768e-01 0.000000e+00 
8.827717e-01 4.914691e-01 0.000000e+00 
8.905018e-01 4.921271e-01 0.000000e+00 
8.976594e-01 4.926639e-01 0.000000e+00 
9.043502e-01 4.931129e-01 0.000000e+00 
9.106532e-01 4.934816e-01 0.000000e+00 
9.166401e-01 4.937903e-01 0.000000e+00 
9.223653e-01 4.940439e-01 0.000000e+00 
9.278759e-01 4.942566e-01 0.000000e+00 
9.332090e-01 4.944316e-01 0.000000e+00 
9.383963e-01 4.945782e-01 0.000000e+00 
9.434634e-01 4.946989e-01 0.000000e+00 
9.484315e-01 4.947999e-01 0.000000e+00 
9.533183e-01 4.948828e-01 0.000000e+00 
9.581381e-01 4.949519e-01 0.000000e+00 
9.629034e-01 4.950084e-01 0.000000e+00 
9.676238e-01 4.950550e-01 0.000000e+00 
9.723082e-01 4.950925e-01 0.000000e+00 
9.769636e-01 4.951226e-01 0.000000e+00 
9.815964e-01 4.951459e-01 0.000000e+00 
9.862117e-01 4.951634e-01 0.000000e+00 
9.908145e-01 4.951755e-01 0.000000e+00 
9.954093e-01 4.951826e-01 0.000000e+00 
1.000000e+00 4.951850e-01 0.000000e+00 
-1.000000e+00 4.892533e-01 0.000000e+00 
-9.932047e-01 4.892478e-01 0.000000e+00 
-9.864029e-01 4.892311e-01 0.000000e+00 
-9.795882e-01 4.892027e-01 0.000000e+00 
-9.727536e-01 4.891618e-01 0.000000e+00 
-9.658914e-01 4.891073e-01 0.000000e+00 
-9.589933e-01 4.890373e-01 0.000000e+00 
-9.520496e-01 4.889501e-01 0.000000e+00 
-9.450496e-01 4.888426e-01 0.000000e+00 
-9.379800e-01 4.887121e-01 0.000000e+00 
-9.308261e-01 4.885538e-01 0.000000e+00 
-9.235697e-01 4.883636e-01 0.000000e+00 
-9.161896e-01 4.881342e-01 0.000000e+00 
-9.086602e-01 4.878599e-01 0.000000e+00 
-9.009505e-01 4.875296e-01 0.000000e+00 
-8.930240e-01 4.871351e-01 0.000000e+00 
-8.848351e-01 4.866603e-01 0.000000e+00 
-8.763315e-01 4.860930e-01 0.000000e+00 
-8.674460e-01 4.854096e-01 0.000000e+00 
-8.581028e-01 4.845923e-01 0.000000e+00 
-8.482018e-01 4.836059e-01 0.000000e+00 
-8.376339e-01 4.824227e-01 0.000000e+00 
-8.262511e-01 4.809902e-01 0.000000e+00 
-8.138905e-01 4.792673e-01 0.000000e+00 
-8.003224e-01 4.771673e-01 0.000000e+00 
-7.853133e-01 4.746108e-01 0.000000e+00 
-7.685244e-01 4.714670e-01 0.000000e+00 
-7.495674e-01 4.676206e-01 0.000000e+00 
-7.278359e-01 4.627927e-01 0.000000e+00 
-7.028116e-01 4.566396e-01 0.000000e+00 
-6.736702e-01 4.487570e-01 0.000000e+00 
-6.392376e-01 4.387387e-01 0.000000e+00 
-5.973766e-01 4.252404e-01 0.000000e+00 
-5.471364e-01 4.059413e-01 0.000000e+00 
-4.869046e-01 3.791655e-01 0.000000e+00 
-4.123247e-01 3.427761e-01 0.000000e+00 
-3.148147e-01 2.881143e-01 0.000000e+00 
-2.012685e-01 1.933727e-01 0.000000e+00 
-1.006158e-01 6.147467e-02 0.000000e+00 
-3.058360e-02 -6.851055e-02 0.000000e+00 
4.765238e-15 -1.276359e-01 0.000000e+00 
3.058360e-02 -6.851055e-02 0.000000e+00 
1.006158e-01 6.147467e-02 0.000000e+00 
2.012685e-01 1.933727e-01 0.000000e+00 
3.148147e-01 2.881143e-01 0.000000e+00 
4.123247e-01 3.427761e-01 0.000000e+00 
4.869046e-01 3.791655e-01 0.000000e+00 
5.471364e-01 4.059413e-01 0.000000e+00 
5.973766e-01 4.252404e-01 0.000000e+00 
6.392376e-01 4.387387e-01 0.000000e+00 
6.736702e-01 4.487570e-01 0.000000e+00 
7.028116e-01 4.566396e-01 0.000000e+00 
7.278359e-01 4.627927e-01 0.000000e+00 
7.495674e-01 4.676206e-01 0.000000e+00 
7.685244e-01 4.714670e-01 0.000000e+00 
7.853133e-01 4.746108e-01 0.000000e+00 
8.003224e-01 4.771673e-01 0.000000e+00 
8.138905e-01 4.792673e-01 0.000000e+00 
8.262511e-01 4.809902e-01 0.000000e+00 
8.376339e-01 4.824227e-01 0.000000e+00 
8.482018e-01 4.836059e-01 0.000000e+00 
8.581028e-01 4.845923e-01 0.000000e+00 
8.674460e-01 4.854096e-01 0.000000e+00 
8.763315e-01 4.860930e-01 0.000000e+00 
8.848351e-01 4.866603e-01 0.000000e+00 
8.930240e-01 4.871351e-01 0.000000e+00 
9.009505e-01 4.875296e-01 0.000000e+00 
9.086602e-01 4.878599e-01 0.000000e+00 
9.161896e-01 4.881342e-01 0.000000e+00 
9.235697e-01 4.883636e-01 0.000000e+00 
9.308261e-01 4.885538e-01 0.000000e+00 
9.379800e-01 4.887121e-01 0.000000e+00 
9.450496e-01 4.888426e-01 0.000000e+00 
9.520496e-01 4.889501e-01 0.000000e+00 
9.589933e-01 4.890373e-01 0.000000e+00 
9.658914e-01 4.891073e-01 0.000000e+00 
9.727536e-01 4.891618e-01 0.000000e+00 
9.795882e-01 4.892027e-01 0.000000e+00 
9.864029e-01 4.892311e-01 0.000000e+00 
9.932047e-01 4.892478e-01 0.000000e+00 
1.000000e+00 4.892533e-01 0.000000e+00 
-1.000000e+00 4.810593e-01 0.000000e+00 
-9.910703e-01 4.810492e-01 0.000000e+00 
-9.821318e-01 4.810185e-01 0.000000e+00 
-9.731754e-01 4.809666e-01 0.000000e+00 
-9.641914e-01 4.808918e-01 0.000000e+00 
-9.551695e-01 4.807923e-01 0.000000e+00 
-9.460983e-01 4.806650e-01 0.000000e+00 
-9.369650e-01 4.805067e-01 0.000000e+00 
-9.277551e-01 4.803124e-01 0.000000e+00 
-9.184517e-01 4.800770e-01 0.000000e+00 
-9.090350e-01 4.797929e-01 0.000000e+00 
-8.994823e-01 4.794525e-01 0.000000e+00 
-8.897657e-01 4.790443e-01 0.000000e+00 
-8.798536e-01 4.785572e-01 0.000000e+00 
-8.697062e-01 4.779744e-01 0.000000e+00 
-8.592788e-01 4.772798e-01 0.000000e+00 
-8.485140e-01 4.764491e-01 0.000000e+00 
-8.373481e-01 4.754585e-01 0.000000e+00 
-8.256980e-01 4.742728e-01 0.000000e+00 
-8.134723e-01 4.728575e-01 0.000000e+00 
-8.005501e-01 4.711603e-01 0.000000e+00 
-7.868006e-01 4.691295e-01 0.000000e+00 
-7.720457e-01 4.666875e-01 0.000000e+00 
-7.560972e-01 4.637543e-01 0.000000e+00 
-7.386929e-01 4.602074e-01 0.000000e+00 