<VTKFile type='UnstructuredGrid' version='0.1' byte_order='BigEndian'> 
<UnstructuredGrid> 
<Piece NumberOfPoints='  4225 ' NumberOfCells='  4096 '> 
<Points> 
<DataArray type='Float32' NumberOfComponents='3' Format='ascii'> 
0.000000e+00 0.000000e+00 0.000000e+00 
1.562500e-02 0.000000e+00 0.000000e+00 
3.125000e-02 0.000000e+00 0.000000e+00 
4.687500e-02 0.000000e+00 0.000000e+00 
6.250000e-02 0.000000e+00 0.000000e+00 
7.812500e-02 0.000000e+00 0.000000e+00 
9.375000e-02 0.000000e+00 0.000000e+00 
1.093750e-01 0.000000e+00 0.000000e+00 
1.250000e-01 0.000000e+00 0.000000e+00 
1.406250e-01 0.000000e+00 0.000000e+00 
1.562500e-01 0.000000e+00 0.000000e+00 
1.718750e-01 0.000000e+00 0.000000e+00 
1.875000e-01 0.000000e+00 0.000000e+00 
2.031250e-01 0.000000e+00 0.000000e+00 
2.187500e-01 0.000000e+00 0.000000e+00 
2.343750e-01 0.000000e+00 0.000000e+00 
2.500000e-01 0.000000e+00 0.000000e+00 
2.656250e-01 0.000000e+00 0.000000e+00 
2.812500e-01 0.000000e+00 0.000000e+00 
2.968750e-01 0.000000e+00 0.000000e+00 
3.125000e-01 0.000000e+00 0.000000e+00 
3.281250e-01 0.000000e+00 0.000000e+00 
3.437500e-01 0.000000e+00 0.000000e+00 
3.593750e-01 0.000000e+00 0.000000e+00 
3.750000e-01 0.000000e+00 0.000000e+00 
3.906250e-01 0.000000e+00 0.000000e+00 
4.062500e-01 0.000000e+00 0.000000e+00 
4.218750e-01 0.000000e+00 0.000000e+00 
4.375000e-01 0.000000e+00 0.000000e+00 
4.531250e-01 0.000000e+00 0.000000e+00 
4.687500e-01 0.000000e+00 0.000000e+00 
4.843750e-01 0.000000e+00 0.000000e+00 
5.000000e-01 0.000000e+00 0.000000e+00 
5.156250e-01 0.000000e+00 0.000000e+00 
5.312500e-01 0.000000e+00 0.000000e+00 
5.468750e-01 0.000000e+00 0.000000e+00 
5.625000e-01 0.000000e+00 0.000000e+00 
5.781250e-01 0.000000e+00 0.000000e+00 
5.937500e-01 0.000000e+00 0.000000e+00 
6.093750e-01 0.000000e+00 0.000000e+00 
6.250000e-01 0.000000e+00 0.000000e+00 
6.406250e-01 0.000000e+00 0.000000e+00 
6.562500e-01 0.000000e+00 0.000000e+00 
6.718750e-01 0.000000e+00 0.000000e+00 
6.875000e-01 0.000000e+00 0.000000e+00 
7.031250e-01 0.000000e+00 0.000000e+00 
7.187500e-01 0.000000e+00 0.000000e+00 
7.343750e-01 0.000000e+00 0.000000e+00 
7.500000e-01 0.000000e+00 0.000000e+00 
7.656250e-01 0.000000e+00 0.000000e+00 
7.812500e-01 0.000000e+00 0.000000e+00 
7.968750e-01 0.000000e+00 0.000000e+00 
8.125000e-01 0.000000e+00 0.000000e+00 
8.281250e-01 0.000000e+00 0.000000e+00 
8.437500e-01 0.000000e+00 0.000000e+00 
8.593750e-01 0.000000e+00 0.000000e+00 
8.750000e-01 0.000000e+00 0.000000e+00 
8.906250e-01 0.000000e+00 0.000000e+00 
9.062500e-01 0.000000e+00 0.000000e+00 
9.218750e-01 0.000000e+00 0.000000e+00 
9.375000e-01 0.000000e+00 0.000000e+00 
9.531250e-01 0.000000e+00 0.000000e+00 
9.687500e-01 0.000000e+00 0.000000e+00 
9.843750e-01 0.000000e+00 0.000000e+00 
1.000000e+00 0.000000e+00 0.000000e+00 
0.000000e+00 1.562500e-02 0.000000e+00 
1.562500e-02 1.562500e-02 0.000000e+00 
3.125000e-02 1.562500e-02 0.000000e+00 
4.687500e-02 1.562500e-02 0.000000e+00 
6.250000e-02 1.562500e-02 0.000000e+00 
7.812500e-02 1.562500e-02 0.000000e+00 
9.375000e-02 1.562500e-02 0.000000e+00 
1.093750e-01 1.562500e-02 0.000000e+00 
1.250000e-01 1.562500e-02 0.000000e+00 
1.406250e-01 1.562500e-02 0.000000e+00 
1.562500e-01 1.562500e-02 0.000000e+00 
1.718750e-01 1.562500e-02 0.000000e+00 
1.875000e-01 1.562500e-02 0.000000e+00 
2.031250e-01 1.562500e-02 0.000000e+00 
2.187500e-01 1.562500e-02 0.000000e+00 
2.343750e-01 1.562500e-02 0.000000e+00 
2.500000e-01 1.562500e-02 0.000000e+00 
2.656250e-01 1.562500e-02 0.000000e+00 
2.812500e-01 1.562500e-02 0.000000e+00 
2.968750e-01 1.562500e-02 0.000000e+00 
3.125000e-01 1.562500e-02 0.000000e+00 
3.281250e-01 1.562500e-02 0.000000e+00 
3.437500e-01 1.562500e-02 0.000000e+00 
3.593750e-01 1.562500e-02 0.000000e+00 
3.750000e-01 1.562500e-02 0.000000e+00 
3.906250e-01 1.562500e-02 0.000000e+00 
4.062500e-01 1.562500e-02 0.000000e+00 
4.218750e-01 1.562500e-02 0.000000e+00 
4.375000e-01 1.562500e-02 0.000000e+00 
4.531250e-01 1.562500e-02 0.000000e+00 
4.687500e-01 1.562500e-02 0.000000e+00 
4.843750e-01 1.562500e-02 0.000000e+00 
5.000000e-01 1.562500e-02 0.000000e+00 
5.156250e-01 1.562500e-02 0.000000e+00 
5.312500e-01 1.562500e-02 0.000000e+00 
5.468750e-01 1.562500e-02 0.000000e+00 
5.625000e-01 1.562500e-02 0.000000e+00 
5.781250e-01 1.562500e-02 0.000000e+00 
5.937500e-01 1.562500e-02 0.000000e+00 
6.093750e-01 1.562500e-02 0.000000e+00 
6.250000e-01 1.562500e-02 0.000000e+00 
6.406250e-01 1.562500e-02 0.000000e+00 
6.562500e-01 1.562500e-02 0.000000e+00 
6.718750e-01 1.562500e-02 0.000000e+00 
6.875000e-01 1.562500e-02 0.000000e+00 
7.031250e-01 1.562500e-02 0.000000e+00 
7.187500e-01 1.562500e-02 0.000000e+00 
7.343750e-01 1.562500e-02 0.000000e+00 
7.500000e-01 1.562500e-02 0.000000e+00 
7.656250e-01 1.562500e-02 0.000000e+00 
7.812500e-01 1.562500e-02 0.000000e+00 
7.968750e-01 1.562500e-02 0.000000e+00 
8.125000e-01 1.562500e-02 0.000000e+00 
8.281250e-01 1.562500e-02 0.000000e+00 
8.437500e-01 1.562500e-02 0.000000e+00 
8.593750e-01 1.562500e-02 0.000000e+00 
8.750000e-01 1.562500e-02 0.000000e+00 
8.906250e-01 1.562500e-02 0.000000e+00 
9.062500e-01 1.562500e-02 0.000000e+00 
9.218750e-01 1.562500e-02 0.000000e+00 
9.375000e-01 1.562500e-02 0.000000e+00 
9.531250e-01 1.562500e-02 0.000000e+00 
9.687500e-01 1.562500e-02 0.000000e+00 
9.843750e-01 1.562500e-02 0.000000e+00 
1.000000e+00 1.562500e-02 0.000000e+00 
0.000000e+00 3.125000e-02 0.000000e+00 
1.562500e-02 3.125000e-02 0.000000e+00 
3.125000e-02 3.125000e-02 0.000000e+00 
4.687500e-02 3.125000e-02 0.000000e+00 
6.250000e-02 3.125000e-02 0.000000e+00 
7.812500e-02 3.125000e-02 0.000000e+00 
9.375000e-02 3.125000e-02 0.000000e+00 
1.093750e-01 3.125000e-02 0.000000e+00 
1.250000e-01 3.125000e-02 0.000000e+00 
1.406250e-01 3.125000e-02 0.000000e+00 
1.562500e-01 3.125000e-02 0.000000e+00 
1.718750e-01 3.125000e-02 0.000000e+00 
1.875000e-01 3.125000e-02 0.000000e+00 
2.031250e-01 3.125000e-02 0.000000e+00 
2.187500e-01 3.125000e-02 0.000000e+00 
2.343750e-01 3.125000e-02 0.000000e+00 
2.500000e-01 3.125000e-02 0.000000e+00 
2.656250e-01 3.125000e-02 0.000000e+00 
2.812500e-01 3.125000e-02 0.000000e+00 
2.968750e-01 3.125000e-02 0.000000e+00 
3.125000e-01 3.125000e-02 0.000000e+00 
3.281250e-01 3.125000e-02 0.000000e+00 
3.437500e-01 3.125000e-02 0.000000e+00 
3.593750e-01 3.125000e-02 0.000000e+00 
3.750000e-01 3.125000e-02 0.000000e+00 
3.906250e-01 3.125000e-02 0.000000e+00 
4.062500e-01 3.125000e-02 0.000000e+00 
4.218750e-01 3.125000e-02 0.000000e+00 
4.375000e-01 3.125000e-02 0.000000e+00 
4.531250e-01 3.125000e-02 0.000000e+00 
4.687500e-01 3.125000e-02 0.000000e+00 
4.843750e-01 3.125000e-02 0.000000e+00 
5.000000e-01 3.125000e-02 0.000000e+00 
5.156250e-01 3.125000e-02 0.000000e+00 
5.312500e-01 3.125000e-02 0.000000e+00 
5.468750e-01 3.125000e-02 0.000000e+00 
5.625000e-01 3.125000e-02 0.000000e+00 
5.781250e-01 3.125000e-02 0.000000e+00 
5.937500e-01 3.125000e-02 0.000000e+00 
6.093750e-01 3.125000e-02 0.000000e+00 
6.250000e-01 3.125000e-02 0.000000e+00 
6.406250e-01 3.125000e-02 0.000000e+00 
6.562500e-01 3.125000e-02 0.000000e+00 
6.718750e-01 3.125000e-02 0.000000e+00 
6.875000e-01 3.125000e-02 0.000000e+00 
7.031250e-01 3.125000e-02 0.000000e+00 
7.187500e-01 3.125000e-02 0.000000e+00 
7.343750e-01 3.125000e-02 0.000000e+00 
7.500000e-01 3.125000e-02 0.000000e+00 
7.656250e-01 3.125000e-02 0.000000e+00 
7.812500e-01 3.125000e-02 0.000000e+00 
7.968750e-01 3.125000e-02 0.000000e+00 
8.125000e-01 3.125000e-02 0.000000e+00 
8.281250e-01 3.125000e-02 0.000000e+00 
8.437500e-01 3.125000e-02 0.000000e+00 
8.593750e-01 3.125000e-02 0.000000e+00 
8.750000e-01 3.125000e-02 0.000000e+00 
8.906250e-01 3.125000e-02 0.000000e+00 
9.062500e-01 3.125000e-02 0.000000e+00 
9.218750e-01 3.125000e-02 0.000000e+00 
9.375000e-01 3.125000e-02 0.000000e+00 
9.531250e-01 3.125000e-02 0.000000e+00 
9.687500e-01 3.125000e-02 0.000000e+00 
9.843750e-01 3.125000e-02 0.000000e+00 
1.000000e+00 3.125000e-02 0.000000e+00 
0.000000e+00 4.687500e-02 0.000000e+00 
1.562500e-02 4.687500e-02 0.000000e+00 
3.125000e-02 4.687500e-02 0.000000e+00 
4.687500e-02 4.687500e-02 0.000000e+00 
6.250000e-02 4.687500e-02 0.000000e+00 
7.812500e-02 4.687500e-02 0.000000e+00 
9.375000e-02 4.687500e-02 0.000000e+00 
1.093750e-01 4.687500e-02 0.000000e+00 
1.250000e-01 4.687500e-02 0.000000e+00 
1.406250e-01 4.687500e-02 0.000000e+00 
1.562500e-01 4.687500e-02 0.000000e+00 
1.718750e-01 4.687500e-02 0.000000e+00 
1.875000e-01 4.687500e-02 0.000000e+00 
2.031250e-01 4.687500e-02 0.000000e+00 
2.187500e-01 4.687500e-02 0.000000e+00 
2.343750e-01 4.687500e-02 0.000000e+00 
2.500000e-01 4.687500e-02 0.000000e+00 
2.656250e-01 4.687500e-02 0.000000e+00 
2.812500e-01 4.687500e-02 0.000000e+00 
2.968750e-01 4.687500e-02 0.000000e+00 
3.125000e-01 4.687500e-02 0.000000e+00 
3.281250e-01 4.687500e-02 0.000000e+00 
3.437500e-01 4.687500e-02 0.000000e+00 
3.593750e-01 4.687500e-02 0.000000e+00 
3.750000e-01 4.687500e-02 0.000000e+00 
3.906250e-01 4.687500e-02 0.000000e+00 
4.062500e-01 4.687500e-02 0.000000e+00 
4.218750e-01 4.687500e-02 0.000000e+00 
4.375000e-01 4.687500e-02 0.000000e+00 
4.531250e-01 4.687500e-02 0.000000e+00 
4.687500e-01 4.687500e-02 0.000000e+00 
4.843750e-01 4.687500e-02 0.000000e+00 
5.000000e-01 4.687500e-02 0.000000e+00 
5.156250e-01 4.687500e-02 0.000000e+00 
5.312500e-01 4.687500e-02 0.000000e+00 
5.468750e-01 4.687500e-02 0.000000e+00 
5.625000e-01 4.687500e-02 0.000000e+00 
5.781250e-01 4.687500e-02 0.000000e+00 
5.937500e-01 4.687500e-02 0.000000e+00 
6.093750e-01 4.687500e-02 0.000000e+00 
6.250000e-01 4.687500e-02 0.000000e+00 
6.406250e-01 4.687500e-02 0.000000e+00 
6.562500e-01 4.687500e-02 0.000000e+00 
6.718750e-01 4.687500e-02 0.000000e+00 
6.875000e-01 4.687500e-02 0.000000e+00 
7.031250e-01 4.687500e-02 0.000000e+00 
7.187500e-01 4.687500e-02 0.000000e+00 
7.343750e-01 4.687500e-02 0.000000e+00 
7.500000e-01 4.687500e-02 0.000000e+00 
[...]
<CellData Scalars='scalars'>
<DataArray type='Float32' Name='exx' Format='ascii'> 
6.737506e-02
6.672620e-02
6.543473e-02
6.351309e-02
6.097978e-02
5.785921e-02
5.418142e-02
4.998183e-02
4.530089e-02
4.018368e-02
3.467948e-02
2.884129e-02
2.272535e-02
1.639055e-02
9.897897e-03
3.309924e-03
-3.309924e-03
-9.897897e-03
-1.639055e-02
-2.272535e-02
-2.884129e-02
-3.467948e-02
-4.018368e-02
-4.530089e-02
-4.998183e-02
-5.418142e-02
-5.785921e-02
-6.097978e-02
-6.351309e-02
-6.543473e-02
-6.672620e-02
-6.737506e-02
-6.737506e-02
-6.672620e-02
-6.543473e-02
-6.351309e-02
-6.097978e-02
-5.785921e-02
-5.418142e-02
-4.998183e-02
-4.530089e-02
-4.018368e-02
-3.467948e-02
-2.884129e-02
-2.272535e-02
-1.639055e-02
-9.897897e-03
-3.309924e-03
3.309924e-03
9.897897e-03
1.639055e-02
2.272535e-02
2.884129e-02
3.467948e-02
4.018368e-02
4.530089e-02
4.998183e-02
5.418142e-02
5.785921e-02
6.097978e-02
6.351309e-02
6.543473e-02
6.672620e-02
6.737506e-02
6.760917e-02
6.695805e-02
6.566210e-02
6.373378e-02
6.119167e-02
5.806025e-02
5.436968e-02
5.015550e-02
4.545830e-02
4.032330e-02
3.479998e-02
2.894151e-02
2.280431e-02
1.644750e-02
9.932289e-03
3.321425e-03
-3.321425e-03
-9.932289e-03
-1.644750e-02
-2.280431e-02
-2.894151e-02
-3.479998e-02
-4.032330e-02
-4.545830e-02
-5.015550e-02
-5.436968e-02
-5.806025e-02
-6.119167e-02
-6.373378e-02
-6.566210e-02
-6.695805e-02
-6.760917e-02
-6.760917e-02
-6.695805e-02
-6.566210e-02
-6.373378e-02
-6.119167e-02
-5.806025e-02
-5.436968e-02
-5.015550e-02
-4.545830e-02
-4.032330e-02
-3.479998e-02
-2.894151e-02
-2.280431e-02
-1.644750e-02
-9.932289e-03
-3.321425e-03
3.321425e-03
9.932289e-03
1.644750e-02
2.280431e-02
2.894151e-02
3.479998e-02
4.032330e-02
4.545830e-02
5.015550e-02
5.436968e-02
5.806025e-02
6.119167e-02
6.373378e-02
6.566210e-02
6.695805e-02
6.760917e-02
6.807561e-02
6.742001e-02
6.611511e-02
6.417349e-02
6.161384e-02
5.846082e-02
5.474479e-02
5.050153e-02
4.577192e-02
4.060150e-02
3.504007e-02
2.914118e-02
2.296164e-02
1.656097e-02
1.000081e-02
3.344341e-03
-3.344341e-03
-1.000081e-02
-1.656097e-02
-2.296164e-02
-2.914118e-02
-3.504007e-02
-4.060150e-02
-4.577192e-02
-5.050153e-02
-5.474479e-02
-5.846082e-02
-6.161384e-02
-6.417349e-02
-6.611511e-02
-6.742001e-02
-6.807561e-02
-6.807561e-02
-6.742001e-02
-6.611511e-02
-6.417349e-02
-6.161384e-02
-5.846082e-02
-5.474479e-02
-5.050153e-02
-4.577192e-02
-4.060150e-02
-3.504007e-02
-2.914118e-02
-2.296164e-02
-1.656097e-02
-1.000081e-02
-3.344341e-03
3.344341e-03
1.000081e-02
1.656097e-02
2.296164e-02
2.914118e-02
3.504007e-02
4.060150e-02
4.577192e-02
5.050153e-02
5.474479e-02
5.846082e-02
6.161384e-02
6.417349e-02
6.611511e-02
6.742001e-02
6.807561e-02
6.877081e-02
6.810851e-02
6.679029e-02
6.482884e-02
6.224305e-02
5.905783e-02
5.530385e-02
5.101726e-02
4.623935e-02
4.101613e-02
3.539790e-02
2.943877e-02
2.319613e-02
1.673010e-02
1.010294e-02
3.378493e-03
-3.378493e-03
-1.010294e-02
-1.673010e-02
-2.319613e-02
-2.943877e-02
-3.539790e-02
-4.101613e-02
-4.623935e-02
-5.101726e-02
-5.530385e-02
-5.905783e-02
-6.224305e-02
-6.482884e-02
-6.679029e-02
-6.810851e-02
-6.877081e-02
-6.877081e-02
-6.810851e-02
-6.679029e-02
-6.482884e-02
-6.224305e-02
-5.905783e-02
-5.530385e-02
-5.101726e-02
-4.623935e-02
-4.101613e-02
-3.539790e-02
-2.943877e-02
-2.319613e-02
-1.673010e-02
-1.010294e-02
-3.378493e-03
3.378493e-03
1.010294e-02
1.673010e-02
2.319613e-02
2.943877e-02
3.539790e-02
4.101613e-02
4.623935e-02
5.101726e-02
5.530385e-02
5.905783e-02
6.224305e-02
6.482884e-02
6.679029e-02
6.810851e-02
6.877081e-02
6.968922e-02
6.901807e-02
6.768225e-02
6.569460e-02
6.307428e-02
5.984652e-02
5.604241e-02
5.169858e-02
4.685686e-02
4.156388e-02
3.587063e-02
2.983191e-02
2.350590e-02
1.695352e-02
1.023786e-02
3.423612e-03
-3.423612e-03
-1.023786e-02
-1.695352e-02
-2.350590e-02
-2.983191e-02
-3.587063e-02
-4.156388e-02
-4.685686e-02
-5.169858e-02
-5.604241e-02
-5.984652e-02
-6.307428e-02
-6.569460e-02
-6.768225e-02
-6.901807e-02
-6.968922e-02
-6.968922e-02
-6.901807e-02
-6.768225e-02
-6.569460e-02
-6.307428e-02
-5.984652e-02
-5.604241e-02
-5.169858e-02
-4.685686e-02
-4.156388e-02
-3.587063e-02
-2.983191e-02
-2.350590e-02
-1.695352e-02
-1.023786e-02
-3.423612e-03
3.423612e-03
1.023786e-02
1.695352e-02
2.350590e-02
2.983191e-02
3.587063e-02
4.156388e-02
4.685686e-02
5.169858e-02
5.604241e-02
5.984652e-02
6.307428e-02
6.569460e-02
6.768225e-02
6.901807e-02
6.968922e-02
7.082320e-02
7.014113e-02
6.878357e-02
6.676358e-02
6.410063e-02
6.082035e-02
5.695433e-02
5.253982e-02
4.761931e-02
4.224021e-02
3.645431e-02
3.031734e-02
2.388839e-02
1.722939e-02
1.040445e-02
3.479321e-03
-3.479321e-03
-1.040445e-02
-1.722939e-02
-2.388839e-02
-3.031734e-02
-3.645431e-02
-4.224021e-02
-4.761931e-02
-5.253982e-02
-5.695433e-02
-6.082035e-02
-6.410063e-02
-6.676358e-02
-6.878357e-02
-7.014113e-02
-7.082320e-02
-7.082320e-02
-7.014113e-02
-6.878357e-02
-6.676358e-02
-6.410063e-02
-6.082035e-02
-5.695433e-02
-5.253982e-02
-4.761931e-02
-4.224021e-02
-3.645431e-02
-3.031734e-02
-2.388839e-02
-1.722939e-02
-1.040445e-02
-3.479321e-03
3.479321e-03
1.040445e-02
1.722939e-02
2.388839e-02
3.031734e-02
3.645431e-02
4.224021e-02
4.761931e-02
5.253982e-02
5.695433e-02
6.082035e-02
6.410063e-02
6.676358e-02
6.878357e-02
7.014113e-02
7.082320e-02
7.216277e-02
7.146781e-02
7.008456e-02
6.802637e-02
6.531305e-02
6.197072e-02
5.803158e-02
5.353357e-02
4.852000e-02
4.303916e-02
3.714382e-02
3.089077e-02
2.434022e-02
1.755527e-02
1.060125e-02
3.545130e-03
-3.545130e-03
-1.060125e-02
-1.755527e-02
-2.434022e-02
-3.089077e-02
-3.714382e-02
-4.303916e-02
-4.852000e-02
-5.353357e-02
-5.803158e-02
-6.197072e-02
-6.531305e-02
-6.802637e-02
-7.008456e-02
-7.146781e-02
-7.216277e-02
-7.216277e-02
-7.146781e-02
-7.008456e-02
-6.802637e-02
-6.531305e-02
-6.197072e-02
-5.803158e-02
-5.353357e-02
-4.852000e-02
-4.303916e-02
-3.714382e-02
-3.089077e-02
-2.434022e-02
-1.755527e-02
-1.060125e-02
-3.545130e-03
3.545130e-03
1.060125e-02
1.755527e-02
2.434022e-02
3.089077e-02
3.714382e-02
4.303916e-02
4.852000e-02
5.353357e-02
5.803158e-02
6.197072e-02
6.531305e-02
6.802637e-02
7.008456e-02
7.146781e-02
7.216277e-02
7.369531e-02
7.298558e-02
7.157296e-02
6.947106e-02
6.670011e-02
6.328681e-02
5.926401e-02
5.467047e-02
4.955043e-02
4.395319e-02
3.793265e-02
3.154680e-02
2.485714e-02
1.792809e-02
1.082639e-02
3.620418e-03
-3.620418e-03
-1.082639e-02
-1.792809e-02
-2.485714e-02
-3.154680e-02
-3.793265e-02
-4.395319e-02
-4.955043e-02
-5.467047e-02
-5.926401e-02
-6.328681e-02
-6.670011e-02
-6.947106e-02
-7.157296e-02
-7.298558e-02
-7.369531e-02
-7.369531e-02
-7.298558e-02
-7.157296e-02
-6.947106e-02
-6.670011e-02
-6.328681e-02
-5.926401e-02
-5.467047e-02
-4.955043e-02
-4.395319e-02
-3.793265e-02
-3.154680e-02
-2.485714e-02
-1.792809e-02
-1.082639e-02
-3.620418e-03
3.620418e-03
1.082639e-02
1.792809e-02
2.485714e-02
3.154680e-02
3.793265e-02
4.395319e-02
4.955043e-02
5.467047e-02
5.926401e-02
6.328681e-02
6.670011e-02
6.947106e-02
7.157296e-02
7.298558e-02
7.369531e-02
7.540517e-02
7.467898e-02
7.323358e-02
7.108291e-02
6.824767e-02
6.475517e-02
6.063904e-02
5.593893e-02
5.070009e-02
4.497298e-02
3.881276e-02
3.227874e-02
2.543387e-02
1.834406e-02
1.107758e-02
3.704418e-03
-3.704418e-03
-1.107758e-02
-1.834406e-02
-2.543387e-02
-3.227874e-02
-3.881276e-02
-4.497298e-02
-5.070009e-02
-5.593893e-02
-6.063904e-02
-6.475517e-02
-6.824767e-02
-7.108291e-02
-7.323358e-02
-7.467898e-02
-7.540517e-02
-7.540517e-02
-7.467898e-02
-7.323358e-02
-7.108291e-02
-6.824767e-02
-6.475517e-02
-6.063904e-02
-5.593893e-02
-5.070009e-02
-4.497298e-02
-3.881276e-02
-3.227874e-02
-2.543387e-02
-1.834406e-02
-1.107758e-02
-3.704418e-03
3.704418e-03
1.107758e-02
1.834406e-02
2.543387e-02
3.227874e-02
3.881276e-02
4.497298e-02
5.070009e-02
5.593893e-02
6.063904e-02
6.475517e-02
6.824767e-02
7.108291e-02
7.323358e-02
7.467898e-02
7.540517e-02
7.727326e-02
7.652908e-02
7.504788e-02
7.284392e-02
6.993844e-02
6.635942e-02
6.214132e-02
5.732476e-02
5.195613e-02
4.608714e-02
3.977430e-02
3.307842e-02
2.606397e-02
1.879851e-02
1.135202e-02
3.796192e-03
-3.796192e-03
-1.135202e-02
-1.879851e-02
-2.606397e-02
-3.307842e-02
-3.977430e-02
-4.608714e-02
-5.195613e-02
-5.732476e-02
-6.214132e-02
-6.635942e-02
-6.993844e-02
-7.284392e-02
-7.504788e-02
-7.652908e-02
-7.727326e-02
-7.727326e-02
-7.652908e-02
-7.504788e-02
-7.284392e-02
-6.993844e-02
-6.635942e-02
-6.214132e-02
-5.732476e-02
-5.195613e-02
-4.608714e-02
-3.977430e-02
-3.307842e-02
-2.606397e-02
-1.879851e-02
-1.135202e-02
-3.796192e-03
3.796192e-03
1.135202e-02
1.879851e-02
2.606397e-02
3.307842e-02
3.977430e-02
4.608714e-02
5.195613e-02
5.732476e-02
6.214132e-02
6.635942e-02
6.993844e-02
7.284392e-02
7.504788e-02
7.652908e-02
7.727326e-02
7.927650e-02
7.851303e-02
7.699343e-02
7.473234e-02
7.175154e-02
6.807973e-02
6.375228e-02
5.881085e-02
5.330305e-02
4.728191e-02
4.080542e-02
3.393595e-02
2.673966e-02
1.928585e-02
1.164631e-02
3.894605e-03
-3.894605e-03
-1.164631e-02
-1.928585e-02
-2.673966e-02
-3.393595e-02
-4.080542e-02
-4.728191e-02
-5.330305e-02
-5.881085e-02
-6.375228e-02
-6.807973e-02
-7.175154e-02
-7.473234e-02
-7.699343e-02
-7.851303e-02
-7.927650e-02
-7.927650e-02
-7.851303e-02
-7.699343e-02
-7.473234e-02
-7.175154e-02
-6.807973e-02
-6.375228e-02
-5.881085e-02
-5.330305e-02
-4.728191e-02
-4.080542e-02
-3.393595e-02
-2.673966e-02
-1.928585e-02
-1.164631e-02
-3.894605e-03
3.894605e-03
1.164631e-02
1.928585e-02
2.673966e-02
3.393595e-02
4.080542e-02
4.728191e-02
5.330305e-02
5.881085e-02
6.375228e-02
6.807973e-02
7.175154e-02
7.473234e-02
7.699343e-02
7.851303e-02
7.927650e-02
8.138721e-02
8.060340e-02
7.904335e-02
7.672206e-02
7.366189e-02
6.989232e-02
6.544966e-02
6.037667e-02
5.472222e-02
4.854077e-02
4.189185e-02
3.483948e-02
2.745159e-02
1.979933e-02
1.195639e-02
3.998297e-03
-3.998297e-03
-1.195639e-02
-1.979933e-02
-2.745159e-02
-3.483948e-02
-4.189185e-02
-4.854077e-02
-5.472222e-02
-6.037667e-02
-6.544966e-02
-6.989232e-02
-7.366189e-02
-7.672206e-02
-7.904335e-02
-8.060340e-02
-8.138721e-02
-8.138721e-02
-8.060340e-02
-7.904335e-02
-7.672206e-02
-7.366189e-02
-6.989232e-02
-6.544966e-02
-6.037667e-02
-5.472222e-02
-4.854077e-02
-4.189185e-02
-3.483948e-02
-2.745159e-02
-1.979933e-02
-1.195639e-02
-3.998297e-03
3.998297e-03
1.195639e-02
1.979933e-02
2.745159e-02
3.483948e-02
4.189185e-02
4.854077e-02
5.472222e-02
6.037667e-02
6.544966e-02
6.989232e-02
7.366189e-02
7.672206e-02
7.904335e-02
8.060340e-02
8.138721e-02
8.357236e-02
8.276751e-02
8.116557e-02
7.878196e-02
7.563963e-02
7.176885e-02
6.720690e-02
6.199771e-02
5.619145e-02
4.984404e-02
4.301660e-02
3.577488e-02
2.818864e-02
2.033092e-02
1.227740e-02
4.105647e-03
-4.105647e-03
-1.227740e-02
-2.033092e-02
-2.818864e-02
-3.577488e-02
-4.301660e-02
-4.984404e-02
-5.619145e-02
-6.199771e-02
-6.720690e-02
-7.176885e-02
-7.563963e-02
-7.878196e-02
-8.116557e-02
-8.276751e-02
-8.357236e-02
-8.357236e-02
-8.276751e-02
-8.116557e-02
-7.878196e-02
-7.563963e-02
-7.176885e-02
-6.720690e-02
-6.199771e-02
-5.619145e-02
-4.984404e-02
-4.301660e-02
-3.577488e-02
-2.818864e-02
-2.033092e-02
-1.227740e-02
-4.105647e-03
4.105647e-03
1.227740e-02
2.033092e-02
2.818864e-02
3.577488e-02
4.301660e-02
4.984404e-02
5.619145e-02
6.199771e-02
6.720690e-02
7.176885e-02
7.563963e-02
7.878196e-02
8.116557e-02
8.276751e-02
8.357236e-02
8.579279e-02
8.496655e-02
8.332205e-02
8.087511e-02
7.764929e-02
7.367567e-02
6.899252e-02
6.364492e-02
5.768440e-02
5.116834e-02
4.415950e-02
3.672538e-02
2.893758e-02
2.087109e-02
1.260360e-02
4.214729e-03
-4.214729e-03
-1.260360e-02
-2.087109e-02
-2.893758e-02
-3.672538e-02
-4.415950e-02
-5.116834e-02
-5.768440e-02
-6.364492e-02
-6.899252e-02
-7.367567e-02
-7.764929e-02
-8.087511e-02
-8.332205e-02
-8.496655e-02
-8.579279e-02
-8.579279e-02
-8.496655e-02
-8.332205e-02
-8.087511e-02
-7.764929e-02
-7.367567e-02
-6.899252e-02
-6.364492e-02
-5.768440e-02
-5.116834e-02
-4.415950e-02
-3.672538e-02
-2.893758e-02
-2.087109e-02
-1.260360e-02
-4.214729e-03
4.214729e-03
1.260360e-02
2.087109e-02
2.893758e-02
3.672538e-02
4.415950e-02
5.116834e-02
5.768440e-02
6.364492e-02
6.899252e-02
7.367567e-02
7.764929e-02
8.087511e-02
8.332205e-02
8.496655e-02
8.579279e-02
8.800217e-02
8.715466e-02
8.546781e-02
8.295785e-02
7.964896e-02
7.557301e-02
7.076925e-02
6.528395e-02
5.916992e-02
5.248606e-02
4.529672e-02
3.767115e-02
2.968279e-02
2.140857e-02
1.292817e-02
4.323270e-03
-4.323270e-03
-1.292817e-02
-2.140857e-02
-2.968279e-02
-3.767115e-02
-4.529672e-02
-5.248606e-02
-5.916992e-02
-6.528395e-02
-7.076925e-02
-7.557301e-02
-7.964896e-02
-8.295785e-02
-8.546781e-02
-8.715466e-02
-8.800217e-02
-8.800217e-02
-8.715466e-02
-8.546781e-02
-8.295785e-02
-7.964896e-02
-7.557301e-02
-7.076925e-02
-6.528395e-02
-5.916992e-02
-5.248606e-02
-4.529672e-02
-3.767115e-02
-2.968279e-02
-2.140857e-02
-1.292817e-02
-4.323270e-03
4.323270e-03
1.292817e-02
2.140857e-02
2.968279e-02
3.767115e-02
4.529672e-02
5.248606e-02
5.916992e-02
6.528395e-02
7.076925e-02
7.557301e-02
7.964896e-02
8.295785e-02
8.546781e-02
8.715466e-02
8.800217e-02
9.014599e-02
8.927784e-02
8.754989e-02
8.497878e-02
8.158929e-02
7.741405e-02
7.249326e-02
6.687433e-02
6.061136e-02
5.376467e-02
4.640019e-02
3.858886e-02
3.040590e-02
2.193011e-02
1.324312e-02
4.428589e-03
-4.428589e-03
-1.324312e-02
-2.193011e-02
-3.040590e-02
-3.858886e-02
-4.640019e-02
-5.376467e-02
-6.061136e-02
-6.687433e-02
-7.249326e-02
-7.741405e-02
-8.158929e-02
-8.497878e-02
-8.754989e-02
-8.927784e-02
-9.014599e-02
-9.014599e-02
-8.927784e-02
-8.754989e-02
-8.497878e-02
-8.158929e-02
-7.741405e-02
-7.249326e-02
-6.687433e-02
-6.061136e-02
-5.376467e-02
-4.640019e-02
-3.858886e-02
-3.040590e-02
-2.193011e-02
-1.324312e-02
-4.428589e-03
4.428589e-03
1.324312e-02
2.193011e-02
3.040590e-02
3.858886e-02
4.640019e-02
5.376467e-02
6.061136e-02
6.687433e-02
7.249326e-02
7.741405e-02
8.158929e-02
8.497878e-02
8.754989e-02
8.927784e-02
9.014599e-02
9.216022e-02
9.127267e-02
8.950611e-02
8.687756e-02
8.341233e-02
7.914379e-02
7.411305e-02
6.836857e-02
6.196566e-02
5.496599e-02
4.743696e-02
3.945109e-02
3.108529e-02
2.242011e-02
1.353902e-02
4.527541e-03
-4.527541e-03
-1.353902e-02
-2.242011e-02
-3.108529e-02
-3.945109e-02
-4.743696e-02
-5.496599e-02
-6.196566e-02
-6.836857e-02
-7.411305e-02
-7.914379e-02
-8.341233e-02
-8.687756e-02
-8.950611e-02
-9.127267e-02
-9.216022e-02
-9.216022e-02
-9.127267e-02
-8.950611e-02
-8.687756e-02
-8.341233e-02
-7.914379e-02
-7.411305e-02
-6.836857e-02
-6.196566e-02
-5.496599e-02
-4.743696e-02
-3.945109e-02
-3.108529e-02
-2.242011e-02
-1.353902e-02
-4.527541e-03
4.527541e-03
1.353902e-02
2.242011e-02
3.108529e-02
3.945109e-02
4.743696e-02
5.496599e-02
6.196566e-02
6.836857e-02
7.411305e-02
7.914379e-02
8.341233e-02
8.687756e-02
8.950611e-02
9.127267e-02
9.216022e-02
9.396991e-02
9.306492e-02
9.126368e-02
8.858351e-02
8.505024e-02
8.069788e-02
7.556836e-02
6.971108e-02
6.318244e-02
5.604532e-02
4.836845e-02
4.022577e-02
3.169569e-02
2.286036e-02
1.380488e-02
4.616445e-03
-4.616445e-03
-1.380488e-02
-2.286036e-02
-3.169569e-02
-4.022577e-02
-4.836845e-02
-5.604532e-02
-6.318244e-02
-6.971108e-02
-7.556836e-02
-8.069788e-02
-8.505024e-02
-8.858351e-02
-9.126368e-02
-9.306492e-02
-9.396991e-02
-9.396991e-02
-9.306492e-02
-9.126368e-02
-8.858351e-02
-8.505024e-02
-8.069788e-02
-7.556836e-02
-6.971108e-02
-6.318244e-02
-5.604532e-02
-4.836845e-02
-4.022577e-02
-3.169569e-02
-2.286036e-02
-1.380488e-02
-4.616445e-03
4.616445e-03
1.380488e-02
2.286036e-02
3.169569e-02
4.022577e-02
4.836845e-02
5.604532e-02
6.318244e-02
6.971108e-02
7.556836e-02
8.069788e-02
8.505024e-02
8.858351e-02
9.126368e-02
9.306492e-02
9.396991e-02
9.548754e-02
9.456794e-02
9.273761e-02
9.001415e-02
8.642382e-02
8.200117e-02
7.678881e-02
7.083693e-02
6.420285e-02
5.695046e-02
4.914961e-02
4.087542e-02
3.220758e-02
2.322956e-02
1.402783e-02
4.691002e-03
-4.691002e-03
-1.402783e-02
-2.322956e-02
-3.220758e-02
-4.087542e-02
-4.914961e-02
-5.695046e-02
-6.420285e-02
-7.083693e-02
-7.678881e-02
-8.200117e-02
-8.642382e-02
-9.001415e-02
-9.273761e-02
-9.456794e-02
-9.548754e-02
-9.548754e-02
-9.456794e-02
-9.273761e-02
-9.001415e-02
-8.642382e-02
-8.200117e-02
-7.678881e-02
-7.083693e-02
-6.420285e-02
-5.695046e-02
-4.914961e-02
-4.087542e-02
-3.220758e-02
-2.322956e-02
-1.402783e-02
-4.691002e-03
4.691002e-03
1.402783e-02
2.322956e-02
3.220758e-02
4.087542e-02
4.914961e-02
5.695046e-02
6.420285e-02
7.083693e-02
7.678881e-02
8.200117e-02
8.642382e-02
9.001415e-02
9.273761e-02
9.456794e-02
9.548754e-02
9.661119e-02
9.568077e-02
9.382889e-02
9.107339e-02
8.744080e-02
8.296611e-02
7.769242e-02
7.167050e-02
6.495835e-02
5.762062e-02
4.972798e-02
4.135642e-02
3.258658e-02
2.350291e-02
1.419290e-02
4.746203e-03
-4.746203e-03
-1.419290e-02
-2.350291e-02
-3.258658e-02
-4.135642e-02
-4.972798e-02
-5.762062e-02
-6.495835e-02
-7.167050e-02
-7.769242e-02
-8.296611e-02
-8.744080e-02
-9.107339e-02
-9.382889e-02
-9.568077e-02
-9.661119e-02
-9.661119e-02
-9.568077e-02
-9.382889e-02
-9.107339e-02
-8.744080e-02
-8.296611e-02
-7.769242e-02
-7.167050e-02
-6.495835e-02
-5.762062e-02
-4.972798e-02
-4.135642e-02
-3.258658e-02
-2.350291e-02
-1.419290e-02
-4.746203e-03
4.746203e-03
1.419290e-02
2.350291e-02
3.258658e-02
4.135642e-02
4.972798e-02
5.762062e-02
6.495835e-02
7.167050e-02
7.769242e-02
8.296611e-02
8.744080e-02
9.107339e-02
9.382889e-02
9.568077e-02
9.661119e-02
9.722237e-02
9.628606e-02
9.442247e-02
9.164954e-02
8.799397e-02
8.349098e-02
7.818391e-02
7.212390e-02
6.536929e-02
5.798514e-02
5.004257e-02
4.161805e-02
3.279273e-02
2.365160e-02
1.428269e-02
4.776229e-03
-4.776229e-03
-1.428269e-02
-2.365160e-02
-3.279273e-02
-4.161805e-02
-5.004257e-02
-5.798514e-02
-6.536929e-02
-7.212390e-02
-7.818391e-02
-8.349098e-02
-8.799397e-02
-9.164954e-02
-9.442247e-02
-9.628606e-02
-9.722237e-02
-9.722237e-02
-9.628606e-02
-9.442247e-02
-9.164954e-02
-8.799397e-02
-8.349098e-02
-7.818391e-02
-7.212390e-02
-6.536929e-02
-5.798514e-02
-5.004257e-02
-4.161805e-02
-3.279273e-02
-2.365160e-02
-1.428269e-02
-4.776229e-03
4.776229e-03
1.428269e-02
2.365160e-02
3.279273e-02
4.161805e-02
5.004257e-02
5.798514e-02
6.536929e-02
7.212390e-02
7.818391e-02
8.349098e-02
8.799397e-02
9.164954e-02
9.442247e-02
9.628606e-02
9.722237e-02
9.718368e-02
9.624775e-02
9.438490e-02
9.161307e-02
8.795896e-02
8.345775e-02
7.815280e-02
7.209520e-02
6.534328e-02
5.796207e-02
5.002265e-02
4.160149e-02
3.277968e-02
2.364219e-02
1.427701e-02
4.774328e-03
-4.774328e-03
-1.427701e-02
-2.364219e-02
-3.277968e-02
-4.160149e-02
-5.002265e-02
-5.796207e-02
-6.534328e-02
-7.209520e-02
-7.815280e-02
-8.345775e-02
-8.795896e-02
-9.161307e-02
-9.438490e-02
-9.624775e-02
-9.718368e-02
-9.718368e-02
-9.624775e-02
-9.438490e-02
-9.161307e-02
-8.795896e-02
-8.345775e-02
-7.815280e-02
-7.209520e-02
-6.534328e-02
-5.796207e-02
-5.002265e-02
-4.160149e-02
-3.277968e-02
-2.364219e-02
-1.427701e-02
-4.774328e-03
4.774328e-03
1.427701e-02
2.364219e-02
3.277968e-02
4.160149e-02
5.002265e-02
5.796207e-02
6.534328e-02
7.209520e-02
7.815280e-02
8.345775e-02
8.795896e-02
9.161307e-02
9.438490e-02
9.624775e-02
9.718368e-02
9.633608e-02
9.540831e-02
9.356171e-02
9.081405e-02
8.719181e-02
8.272986e-02
7.747118e-02
7.146641e-02
6.477338e-02
5.745654e-02
4.958637e-02
4.123865e-02
3.249379e-02
2.343599e-02
1.415249e-02
4.732688e-03
-4.732688e-03
-1.415249e-02
-2.343599e-02
-3.249379e-02
-4.123865e-02
-4.958637e-02
-5.745654e-02
-6.477338e-02
-7.146641e-02
-7.747118e-02
-8.272986e-02
-8.719181e-02
-9.081405e-02
-9.356171e-02
-9.540831e-02
-9.633608e-02
-9.633608e-02
-9.540831e-02
-9.356171e-02
-9.081405e-02
-8.719181e-02
-8.272986e-02
-7.747118e-02
-7.146641e-02
-6.477338e-02
-5.745654e-02
-4.958637e-02
-4.123865e-02
-3.249379e-02
-2.343599e-02
-1.415249e-02
-4.732688e-03
4.732688e-03
1.415249e-02
2.343599e-02
3.249379e-02
4.123865e-02
4.958637e-02
5.745654e-02
6.477338e-02
7.146641e-02
7.747118e-02
8.272986e-02
8.719181e-02
9.081405e-02
9.356171e-02
9.540831e-02
9.633608e-02
9.449579e-02
9.358574e-02
9.177441e-02