<VTKFile type='UnstructuredGrid' version='0.1' byte_order='BigEndian'> 
<UnstructuredGrid> 
<Piece NumberOfPoints='  4225 ' NumberOfCells='  4096 '> 
<Points> 
<DataArray type='Float32' NumberOfComponents='3' Format='ascii'> 
0.000000e+00 0.000000e+00 0.000000e+00 
4.687500e+04 0.000000e+00 0.000000e+00 
9.375000e+04 0.000000e+00 0.000000e+00 
1.406250e+05 0.000000e+00 0.000000e+00 
1.875000e+05 0.000000e+00 0.000000e+00 
2.343750e+05 0.000000e+00 0.000000e+00 
2.812500e+05 0.000000e+00 0.000000e+00 
3.281250e+05 0.000000e+00 0.000000e+00 
3.750000e+05 0.000000e+00 0.000000e+00 
4.218750e+05 0.000000e+00 0.000000e+00 
4.687500e+05 0.000000e+00 0.000000e+00 
5.156250e+05 0.000000e+00 0.000000e+00 
5.625000e+05 0.000000e+00 0.000000e+00 
6.093750e+05 0.000000e+00 0.000000e+00 
6.562500e+05 0.000000e+00 0.000000e+00 
7.031250e+05 0.000000e+00 0.000000e+00 
7.500000e+05 0.000000e+00 0.000000e+00 
7.968750e+05 0.000000e+00 0.000000e+00 
8.437500e+05 0.000000e+00 0.000000e+00 
8.906250e+05 0.000000e+00 0.000000e+00 
9.375000e+05 0.000000e+00 0.000000e+00 
9.843750e+05 0.000000e+00 0.000000e+00 
1.031250e+06 0.000000e+00 0.000000e+00 
1.078125e+06 0.000000e+00 0.000000e+00 
1.125000e+06 0.000000e+00 0.000000e+00 
1.171875e+06 0.000000e+00 0.000000e+00 
1.218750e+06 0.000000e+00 0.000000e+00 
1.265625e+06 0.000000e+00 0.000000e+00 
1.312500e+06 0.000000e+00 0.000000e+00 
1.359375e+06 0.000000e+00 0.000000e+00 
1.406250e+06 0.000000e+00 0.000000e+00 
1.453125e+06 0.000000e+00 0.000000e+00 
1.500000e+06 0.000000e+00 0.000000e+00 
1.546875e+06 0.000000e+00 0.000000e+00 
1.593750e+06 0.000000e+00 0.000000e+00 
1.640625e+06 0.000000e+00 0.000000e+00 
1.687500e+06 0.000000e+00 0.000000e+00 
1.734375e+06 0.000000e+00 0.000000e+00 
1.781250e+06 0.000000e+00 0.000000e+00 
1.828125e+06 0.000000e+00 0.000000e+00 
1.875000e+06 0.000000e+00 0.000000e+00 
1.921875e+06 0.000000e+00 0.000000e+00 
1.968750e+06 0.000000e+00 0.000000e+00 
2.015625e+06 0.000000e+00 0.000000e+00 
2.062500e+06 0.000000e+00 0.000000e+00 
2.109375e+06 0.000000e+00 0.000000e+00 
2.156250e+06 0.000000e+00 0.000000e+00 
2.203125e+06 0.000000e+00 0.000000e+00 
2.250000e+06 0.000000e+00 0.000000e+00 
2.296875e+06 0.000000e+00 0.000000e+00 
2.343750e+06 0.000000e+00 0.000000e+00 
2.390625e+06 0.000000e+00 0.000000e+00 
2.437500e+06 0.000000e+00 0.000000e+00 
2.484375e+06 0.000000e+00 0.000000e+00 
2.531250e+06 0.000000e+00 0.000000e+00 
2.578125e+06 0.000000e+00 0.000000e+00 
2.625000e+06 0.000000e+00 0.000000e+00 
2.671875e+06 0.000000e+00 0.000000e+00 
2.718750e+06 0.000000e+00 0.000000e+00 
2.765625e+06 0.000000e+00 0.000000e+00 
2.812500e+06 0.000000e+00 0.000000e+00 
2.859375e+06 0.000000e+00 0.000000e+00 
2.906250e+06 0.000000e+00 0.000000e+00 
2.953125e+06 0.000000e+00 0.000000e+00 
3.000000e+06 0.000000e+00 0.000000e+00 
0.000000e+00 4.687500e+04 0.000000e+00 
4.687500e+04 4.687500e+04 0.000000e+00 
9.375000e+04 4.687500e+04 0.000000e+00 
1.406250e+05 4.687500e+04 0.000000e+00 
1.875000e+05 4.687500e+04 0.000000e+00 
2.343750e+05 4.687500e+04 0.000000e+00 
2.812500e+05 4.687500e+04 0.000000e+00 
3.281250e+05 4.687500e+04 0.000000e+00 
3.750000e+05 4.687500e+04 0.000000e+00 
4.218750e+05 4.687500e+04 0.000000e+00 
4.687500e+05 4.687500e+04 0.000000e+00 
5.156250e+05 4.687500e+04 0.000000e+00 
5.625000e+05 4.687500e+04 0.000000e+00 
6.093750e+05 4.687500e+04 0.000000e+00 
6.562500e+05 4.687500e+04 0.000000e+00 
7.031250e+05 4.687500e+04 0.000000e+00 
7.500000e+05 4.687500e+04 0.000000e+00 
7.968750e+05 4.687500e+04 0.000000e+00 
8.437500e+05 4.687500e+04 0.000000e+00 
8.906250e+05 4.687500e+04 0.000000e+00 
9.375000e+05 4.687500e+04 0.000000e+00 
9.843750e+05 4.687500e+04 0.000000e+00 
1.031250e+06 4.687500e+04 0.000000e+00 
1.078125e+06 4.687500e+04 0.000000e+00 
1.125000e+06 4.687500e+04 0.000000e+00 
1.171875e+06 4.687500e+04 0.000000e+00 
1.218750e+06 4.687500e+04 0.000000e+00 
1.265625e+06 4.687500e+04 0.000000e+00 
1.312500e+06 4.687500e+04 0.000000e+00 
1.359375e+06 4.687500e+04 0.000000e+00 
1.406250e+06 4.687500e+04 0.000000e+00 
1.453125e+06 4.687500e+04 0.000000e+00 
1.500000e+06 4.687500e+04 0.000000e+00 
1.546875e+06 4.687500e+04 0.000000e+00 
1.593750e+06 4.687500e+04 0.000000e+00 
1.640625e+06 4.687500e+04 0.000000e+00 
1.687500e+06 4.687500e+04 0.000000e+00 
1.734375e+06 4.687500e+04 0.000000e+00 
1.781250e+06 4.687500e+04 0.000000e+00 
1.828125e+06 4.687500e+04 0.000000e+00 
1.875000e+06 4.687500e+04 0.000000e+00 
1.921875e+06 4.687500e+04 0.000000e+00 
1.968750e+06 4.687500e+04 0.000000e+00 
2.015625e+06 4.687500e+04 0.000000e+00 
2.062500e+06 4.687500e+04 0.000000e+00 
2.109375e+06 4.687500e+04 0.000000e+00 
2.156250e+06 4.687500e+04 0.000000e+00 
2.203125e+06 4.687500e+04 0.000000e+00 
2.250000e+06 4.687500e+04 0.000000e+00 
2.296875e+06 4.687500e+04 0.000000e+00 
2.343750e+06 4.687500e+04 0.000000e+00 
2.390625e+06 4.687500e+04 0.000000e+00 
2.437500e+06 4.687500e+04 0.000000e+00 
2.484375e+06 4.687500e+04 0.000000e+00 
2.531250e+06 4.687500e+04 0.000000e+00 
2.578125e+06 4.687500e+04 0.000000e+00 
2.625000e+06 4.687500e+04 0.000000e+00 
2.671875e+06 4.687500e+04 0.000000e+00 
2.718750e+06 4.687500e+04 0.000000e+00 
2.765625e+06 4.687500e+04 0.000000e+00 
2.812500e+06 4.687500e+04 0.000000e+00 
2.859375e+06 4.687500e+04 0.000000e+00 
2.906250e+06 4.687500e+04 0.000000e+00 
2.953125e+06 4.687500e+04 0.000000e+00 
3.000000e+06 4.687500e+04 0.000000e+00 
0.000000e+00 9.375000e+04 0.000000e+00 
4.687500e+04 9.375000e+04 0.000000e+00 
9.375000e+04 9.375000e+04 0.000000e+00 
1.406250e+05 9.375000e+04 0.000000e+00 
1.875000e+05 9.375000e+04 0.000000e+00 
2.343750e+05 9.375000e+04 0.000000e+00 
2.812500e+05 9.375000e+04 0.000000e+00 
3.281250e+05 9.375000e+04 0.000000e+00 
3.750000e+05 9.375000e+04 0.000000e+00 
4.218750e+05 9.375000e+04 0.000000e+00 
4.687500e+05 9.375000e+04 0.000000e+00 
5.156250e+05 9.375000e+04 0.000000e+00 
5.625000e+05 9.375000e+04 0.000000e+00 
6.093750e+05 9.375000e+04 0.000000e+00 
6.562500e+05 9.375000e+04 0.000000e+00 
7.031250e+05 9.375000e+04 0.000000e+00 
7.500000e+05 9.375000e+04 0.000000e+00 
7.968750e+05 9.375000e+04 0.000000e+00 
8.437500e+05 9.375000e+04 0.000000e+00 
8.906250e+05 9.375000e+04 0.000000e+00 
9.375000e+05 9.375000e+04 0.000000e+00 
9.843750e+05 9.375000e+04 0.000000e+00 
1.031250e+06 9.375000e+04 0.000000e+00 
1.078125e+06 9.375000e+04 0.000000e+00 
1.125000e+06 9.375000e+04 0.000000e+00 
1.171875e+06 9.375000e+04 0.000000e+00 
1.218750e+06 9.375000e+04 0.000000e+00 
1.265625e+06 9.375000e+04 0.000000e+00 
1.312500e+06 9.375000e+04 0.000000e+00 
1.359375e+06 9.375000e+04 0.000000e+00 
1.406250e+06 9.375000e+04 0.000000e+00 
1.453125e+06 9.375000e+04 0.000000e+00 
1.500000e+06 9.375000e+04 0.000000e+00 
1.546875e+06 9.375000e+04 0.000000e+00 
1.593750e+06 9.375000e+04 0.000000e+00 
1.640625e+06 9.375000e+04 0.000000e+00 
1.687500e+06 9.375000e+04 0.000000e+00 
1.734375e+06 9.375000e+04 0.000000e+00 
1.781250e+06 9.375000e+04 0.000000e+00 
1.828125e+06 9.375000e+04 0.000000e+00 
1.875000e+06 9.375000e+04 0.000000e+00 
1.921875e+06 9.375000e+04 0.000000e+00 
1.968750e+06 9.375000e+04 0.000000e+00 
2.015625e+06 9.375000e+04 0.000000e+00 
2.062500e+06 9.375000e+04 0.000000e+00 
2.109375e+06 9.375000e+04 0.000000e+00 
2.156250e+06 9.375000e+04 0.000000e+00 
2.203125e+06 9.375000e+04 0.000000e+00 
2.250000e+06 9.375000e+04 0.000000e+00 
2.296875e+06 9.375000e+04 0.000000e+00 
2.343750e+06 9.375000e+04 0.000000e+00 
2.390625e+06 9.375000e+04 0.000000e+00 
2.437500e+06 9.375000e+04 0.000000e+00 
2.484375e+06 9.375000e+04 0.000000e+00 
2.531250e+06 9.375000e+04 0.000000e+00 
2.578125e+06 9.375000e+04 0.000000e+00 
2.625000e+06 9.375000e+04 0.000000e+00 
2.671875e+06 9.375000e+04 0.000000e+00 
2.718750e+06 9.375000e+04 0.000000e+00 
2.765625e+06 9.375000e+04 0.000000e+00 
2.812500e+06 9.375000e+04 0.000000e+00 
2.859375e+06 9.375000e+04 0.000000e+00 
2.906250e+06 9.375000e+04 0.000000e+00 
2.953125e+06 9.375000e+04 0.000000e+00 
3.000000e+06 9.375000e+04 0.000000e+00 
0.000000e+00 1.406250e+05 0.000000e+00 
4.687500e+04 1.406250e+05 0.000000e+00 
9.375000e+04 1.406250e+05 0.000000e+00 
1.406250e+05 1.406250e+05 0.000000e+00 
1.875000e+05 1.406250e+05 0.000000e+00 
2.343750e+05 1.406250e+05 0.000000e+00 
2.812500e+05 1.406250e+05 0.000000e+00 
3.281250e+05 1.406250e+05 0.000000e+00 
3.750000e+05 1.406250e+05 0.000000e+00 
4.218750e+05 1.406250e+05 0.000000e+00 
4.687500e+05 1.406250e+05 0.000000e+00 
5.156250e+05 1.406250e+05 0.000000e+00 
5.625000e+05 1.406250e+05 0.000000e+00 
6.093750e+05 1.406250e+05 0.000000e+00 
6.562500e+05 1.406250e+05 0.000000e+00 
7.031250e+05 1.406250e+05 0.000000e+00 
7.500000e+05 1.406250e+05 0.000000e+00 
7.968750e+05 1.406250e+05 0.000000e+00 
8.437500e+05 1.406250e+05 0.000000e+00 
8.906250e+05 1.406250e+05 0.000000e+00 
9.375000e+05 1.406250e+05 0.000000e+00 
9.843750e+05 1.406250e+05 0.000000e+00 
1.031250e+06 1.406250e+05 0.000000e+00 
1.078125e+06 1.406250e+05 0.000000e+00 
1.125000e+06 1.406250e+05 0.000000e+00 
1.171875e+06 1.406250e+05 0.000000e+00 
1.218750e+06 1.406250e+05 0.000000e+00 
1.265625e+06 1.406250e+05 0.000000e+00 
1.312500e+06 1.406250e+05 0.000000e+00 
1.359375e+06 1.406250e+05 0.000000e+00 
1.406250e+06 1.406250e+05 0.000000e+00 
1.453125e+06 1.406250e+05 0.000000e+00 
1.500000e+06 1.406250e+05 0.000000e+00 
1.546875e+06 1.406250e+05 0.000000e+00 
1.593750e+06 1.406250e+05 0.000000e+00 
1.640625e+06 1.406250e+05 0.000000e+00 
1.687500e+06 1.406250e+05 0.000000e+00 
1.734375e+06 1.406250e+05 0.000000e+00 
1.781250e+06 1.406250e+05 0.000000e+00 
1.828125e+06 1.406250e+05 0.000000e+00 
1.875000e+06 1.406250e+05 0.000000e+00 
1.921875e+06 1.406250e+05 0.000000e+00 
1.968750e+06 1.406250e+05 0.000000e+00 
2.015625e+06 1.406250e+05 0.000000e+00 
2.062500e+06 1.406250e+05 0.000000e+00 
2.109375e+06 1.406250e+05 0.000000e+00 
2.156250e+06 1.406250e+05 0.000000e+00 
2.203125e+06 1.406250e+05 0.000000e+00 
2.250000e+06 1.406250e+05 0.000000e+00 
[...]
<CellData Scalars='scalars'>
<DataArray type='Float32' Name='p' Format='ascii'> 
4.227216e+10
4.227180e+10
4.227106e+10
4.226995e+10
4.226846e+10
4.226659e+10
4.226436e+10
4.226177e+10
4.225881e+10
4.225552e+10
4.225188e+10
4.224793e+10
4.224366e+10
4.223909e+10
4.223423e+10
4.222910e+10
4.222372e+10
4.221809e+10
4.221223e+10
4.220616e+10
4.219988e+10
4.219341e+10
4.218676e+10
4.217995e+10
4.217299e+10
4.216588e+10
4.215864e+10
4.215128e+10
4.214382e+10
4.213624e+10
4.212858e+10
4.212083e+10
4.211301e+10
4.210513e+10
4.209718e+10
4.208920e+10
4.208117e+10
4.207312e+10
4.206505e+10
4.205697e+10
4.204891e+10
4.204087e+10
4.203287e+10
4.202492e+10
4.201704e+10
4.200926e+10
4.200160e+10
4.199408e+10
4.198673e+10
4.197957e+10
4.197264e+10
4.196598e+10
4.195962e+10
4.195359e+10
4.194793e+10
4.194270e+10
4.193791e+10
4.193362e+10
4.192986e+10
4.192666e+10
4.192406e+10
4.192209e+10
4.192076e+10
4.192010e+10
4.097898e+10
4.097861e+10
4.097787e+10
4.097675e+10
4.097526e+10
4.097339e+10
4.097116e+10
4.096856e+10
4.096560e+10
4.096230e+10
4.095867e+10
4.095471e+10
4.095044e+10
4.094588e+10
4.094103e+10
4.093590e+10
4.093053e+10
4.092491e+10
4.091906e+10
4.091300e+10
4.090674e+10
4.090029e+10
4.089367e+10
4.088688e+10
4.087995e+10
4.087287e+10
4.086567e+10
4.085834e+10
4.085091e+10
4.084338e+10
4.083576e+10
4.082806e+10
4.082028e+10
4.081245e+10
4.080455e+10
4.079662e+10
4.078865e+10
4.078065e+10
4.077264e+10
4.076462e+10
4.075662e+10
4.074864e+10
4.074070e+10
4.073281e+10
4.072500e+10
4.071729e+10
4.070969e+10
4.070223e+10
4.069494e+10
4.068785e+10
4.068099e+10
4.067439e+10
4.066809e+10
4.066212e+10
4.065652e+10
4.065133e+10
4.064660e+10
4.064235e+10
4.063863e+10
4.063547e+10
4.063290e+10
4.063094e+10
4.062963e+10
4.062897e+10
3.968162e+10
3.968125e+10
3.968050e+10
3.967938e+10
3.967788e+10
3.967601e+10
3.967377e+10
3.967117e+10
3.966821e+10
3.966491e+10
3.966128e+10
3.965732e+10
3.965306e+10
3.964850e+10
3.964366e+10
3.963856e+10
3.963320e+10
3.962761e+10
3.962179e+10
3.961576e+10
3.960954e+10
3.960314e+10
3.959656e+10
3.958983e+10
3.958295e+10
3.957594e+10
3.956880e+10
3.956155e+10
3.955420e+10
3.954675e+10
3.953921e+10
3.953160e+10
3.952392e+10
3.951618e+10
3.950838e+10
3.950055e+10
3.949268e+10
3.948480e+10
3.947690e+10
3.946900e+10
3.946111e+10
3.945325e+10
3.944542e+10
3.943766e+10
3.942997e+10
3.942238e+10
3.941491e+10
3.940758e+10
3.940041e+10
3.939344e+10
3.938670e+10
3.938022e+10
3.937403e+10
3.936818e+10
3.936268e+10
3.935760e+10
3.935296e+10
3.934879e+10
3.934515e+10
3.934205e+10
3.933953e+10
3.933761e+10
3.933632e+10
3.933567e+10
3.838005e+10
3.837968e+10
3.837893e+10
3.837780e+10
3.837630e+10
3.837443e+10
3.837218e+10
3.836958e+10
3.836663e+10
3.836333e+10
3.835970e+10
3.835576e+10
3.835151e+10
3.834698e+10
3.834216e+10
3.833709e+10
3.833177e+10
3.832622e+10
3.832045e+10
3.831448e+10
3.830832e+10
3.830199e+10
3.829549e+10
3.828884e+10
3.828205e+10
3.827514e+10
3.826810e+10
3.826096e+10
3.825372e+10
3.824639e+10
3.823899e+10
3.823151e+10
3.822396e+10
3.821637e+10
3.820872e+10
3.820104e+10
3.819333e+10
3.818560e+10
3.817786e+10
3.817013e+10
3.816241e+10
3.815472e+10
3.814707e+10
3.813948e+10
3.813197e+10
3.812456e+10
3.811726e+10
3.811011e+10
3.810312e+10
3.809633e+10
3.808976e+10
3.808344e+10
3.807742e+10
3.807172e+10
3.806638e+10
3.806143e+10
3.805692e+10
3.805287e+10
3.804933e+10
3.804632e+10
3.804387e+10
3.804201e+10
3.804076e+10
3.804012e+10
3.707432e+10
3.707395e+10
3.707320e+10
3.707207e+10
3.707056e+10
3.706869e+10
3.706645e+10
3.706385e+10
3.706090e+10
3.705762e+10
3.705401e+10
3.705009e+10
3.704587e+10
3.704136e+10
3.703659e+10
3.703156e+10
3.702630e+10
3.702081e+10
3.701512e+10
3.700923e+10
3.700315e+10
3.699692e+10
3.699053e+10
3.698399e+10
3.697733e+10
3.697054e+10
3.696365e+10
3.695666e+10
3.694957e+10
3.694241e+10
3.693517e+10
3.692786e+10
3.692050e+10
3.691309e+10
3.690564e+10
3.689816e+10
3.689065e+10
3.688313e+10
3.687560e+10
3.686808e+10
3.686058e+10
3.685311e+10
3.684568e+10
3.683832e+10
3.683103e+10
3.682384e+10
3.681677e+10
3.680984e+10
3.680307e+10
3.679650e+10
3.679015e+10
3.678404e+10
3.677822e+10
3.677272e+10
3.676756e+10
3.676279e+10
3.675844e+10
3.675454e+10
3.675113e+10
3.674823e+10
3.674587e+10
3.674408e+10
3.674287e+10
3.674226e+10
3.576453e+10
3.576415e+10
3.576340e+10
3.576227e+10
3.576077e+10
3.575890e+10
3.575666e+10
3.575407e+10
3.575114e+10
3.574788e+10
3.574429e+10
3.574040e+10
3.573622e+10
3.573177e+10
3.572705e+10
3.572209e+10
3.571690e+10
3.571150e+10
3.570590e+10
3.570011e+10
3.569416e+10
3.568804e+10
3.568179e+10
3.567540e+10
3.566889e+10
3.566227e+10
3.565555e+10
3.564874e+10
3.564185e+10
3.563488e+10
3.562785e+10
3.562076e+10
3.561362e+10
3.560644e+10
3.559923e+10
3.559198e+10
3.558472e+10
3.557745e+10
3.557018e+10
3.556291e+10
3.555567e+10
3.554847e+10
3.554131e+10
3.553421e+10
3.552719e+10
3.552027e+10
3.551347e+10
3.550680e+10
3.550030e+10
3.549399e+10
3.548789e+10
3.548203e+10
3.547645e+10
3.547118e+10
3.546624e+10
3.546167e+10
3.545751e+10
3.545378e+10
3.545051e+10
3.544774e+10
3.544549e+10
3.544378e+10
3.544262e+10
3.544204e+10
3.445081e+10
3.445044e+10
3.444969e+10
3.444856e+10
3.444706e+10
3.444520e+10
3.444298e+10
3.444041e+10
3.443750e+10
3.443426e+10
3.443072e+10
3.442687e+10
3.442274e+10
3.441835e+10
3.441371e+10
3.440883e+10
3.440373e+10
3.439843e+10
3.439295e+10
3.438729e+10
3.438147e+10
3.437551e+10
3.436941e+10
3.436320e+10
3.435688e+10
3.435045e+10
3.434394e+10
3.433735e+10
3.433068e+10
3.432395e+10
3.431716e+10
3.431033e+10
3.430345e+10
3.429653e+10
3.428959e+10
3.428263e+10
3.427565e+10
3.426867e+10
3.426169e+10
3.425472e+10
3.424778e+10
3.424088e+10
3.423402e+10
3.422723e+10
3.422052e+10
3.421390e+10
3.420740e+10
3.420104e+10
3.419484e+10
3.418881e+10
3.418300e+10
3.417743e+10
3.417211e+10
3.416710e+10
3.416240e+10
3.415807e+10
3.415411e+10
3.415057e+10
3.414748e+10
3.414485e+10
3.414271e+10
3.414109e+10
3.413999e+10
3.413944e+10
3.313338e+10
3.313300e+10
3.313225e+10
3.313113e+10
3.312965e+10
3.312779e+10
3.312559e+10
3.312304e+10
3.312016e+10
3.311696e+10
3.311346e+10
3.310967e+10
3.310561e+10
3.310129e+10
3.309673e+10
3.309195e+10
3.308696e+10
3.308179e+10
3.307644e+10
3.307093e+10
3.306527e+10
3.305948e+10
3.305358e+10
3.304756e+10
3.304145e+10
3.303525e+10
3.302897e+10
3.302263e+10
3.301622e+10
3.300975e+10
3.300324e+10
3.299669e+10
3.299010e+10
3.298349e+10
3.297685e+10
3.297020e+10
3.296354e+10
3.295688e+10
3.295023e+10
3.294360e+10
3.293699e+10
3.293042e+10
3.292391e+10
3.291745e+10
3.291108e+10
3.290480e+10
3.289864e+10
3.289260e+10
3.288673e+10
3.288103e+10
3.287553e+10
3.287026e+10
3.286524e+10
3.286051e+10
3.285608e+10
3.285199e+10
3.284826e+10
3.284493e+10
3.284202e+10
3.283954e+10
3.283753e+10
3.283601e+10
3.283498e+10
3.283446e+10
3.181244e+10
3.181207e+10
3.181133e+10
3.181021e+10
3.180874e+10
3.180690e+10
3.180472e+10
3.180220e+10
3.179935e+10
3.179620e+10
3.179275e+10
3.178902e+10
3.178503e+10
3.178080e+10
3.177634e+10
3.177167e+10
3.176681e+10
3.176177e+10
3.175657e+10
3.175123e+10
3.174576e+10
3.174016e+10
3.173446e+10
3.172867e+10
3.172279e+10
3.171684e+10
3.171083e+10
3.170475e+10
3.169862e+10
3.169245e+10
3.168624e+10
3.168000e+10
3.167374e+10
3.166745e+10
3.166115e+10
3.165484e+10
3.164853e+10
3.164222e+10
3.163592e+10
3.162965e+10
3.162341e+10
3.161720e+10
3.161105e+10
3.160496e+10
3.159895e+10
3.159304e+10
3.158724e+10
3.158156e+10
3.157604e+10
3.157068e+10
3.156552e+10
3.156058e+10
3.155587e+10
3.155144e+10
3.154729e+10
3.154347e+10
3.153999e+10
3.153687e+10
3.153415e+10
3.153184e+10
3.152997e+10
3.152854e+10
3.152758e+10
3.152710e+10
3.048826e+10
3.048789e+10
3.048715e+10
3.048605e+10
3.048458e+10
3.048277e+10
3.048061e+10
3.047812e+10
3.047532e+10
3.047221e+10
3.046882e+10
3.046516e+10
3.046126e+10
3.045712e+10
3.045277e+10
3.044822e+10
3.044349e+10
3.043860e+10
3.043357e+10
3.042841e+10
3.042313e+10
3.041775e+10
3.041228e+10
3.040672e+10
3.040110e+10
3.039541e+10
3.038968e+10
3.038389e+10
3.037807e+10
3.037221e+10
3.036633e+10
3.036042e+10
3.035450e+10
3.034856e+10
3.034262e+10
3.033668e+10
3.033073e+10
3.032480e+10
3.031889e+10
3.031299e+10
3.030713e+10
3.030132e+10
3.029555e+10
3.028985e+10
3.028423e+10
3.027870e+10
3.027328e+10
3.026798e+10
3.026283e+10
3.025784e+10
3.025303e+10
3.024843e+10
3.024406e+10
3.023993e+10
3.023609e+10
3.023254e+10
3.022931e+10
3.022643e+10
3.022391e+10
3.022177e+10
3.022003e+10
3.021872e+10
3.021783e+10
3.021738e+10
2.916107e+10
2.916070e+10
2.915997e+10
2.915888e+10
2.915743e+10
2.915564e+10
2.915350e+10
2.915105e+10
2.914829e+10
2.914524e+10
2.914191e+10
2.913833e+10
2.913451e+10
2.913047e+10
2.912624e+10
2.912182e+10
2.911724e+10
2.911251e+10
2.910766e+10
2.910269e+10
2.909761e+10
2.909246e+10
2.908722e+10
2.908192e+10
2.907657e+10
2.907116e+10
2.906572e+10
2.906024e+10
2.905474e+10
2.904922e+10
2.904367e+10
2.903812e+10
2.903255e+10
2.902699e+10
2.902142e+10
2.901585e+10
2.901030e+10
2.900476e+10
2.899924e+10
2.899375e+10
2.898829e+10
2.898288e+10
2.897752e+10
2.897222e+10
2.896700e+10
2.896187e+10
2.895685e+10
2.895194e+10
2.894717e+10
2.894256e+10
2.893812e+10
2.893387e+10
2.892984e+10
2.892604e+10
2.892250e+10
2.891924e+10
2.891627e+10
2.891362e+10
2.891131e+10
2.890935e+10
2.890776e+10
2.890655e+10
2.890574e+10
2.890533e+10
2.783114e+10
2.783077e+10
2.783005e+10
2.782897e+10
2.782753e+10
2.782576e+10
2.782366e+10
2.782124e+10
2.781853e+10
2.781553e+10
2.781227e+10
2.780877e+10
2.780504e+10
2.780111e+10
2.779700e+10
2.779272e+10
2.778829e+10
2.778373e+10
2.777905e+10
2.777428e+10
2.776943e+10
2.776450e+10
2.775951e+10
2.775447e+10
2.774940e+10
2.774428e+10
2.773915e+10
2.773399e+10
2.772882e+10
2.772363e+10
2.771844e+10
2.771325e+10
2.770806e+10
2.770287e+10
2.769769e+10
2.769252e+10
2.768736e+10
2.768223e+10
2.767712e+10
2.767204e+10
2.766699e+10
2.766200e+10
2.765705e+10
2.765217e+10
2.764737e+10
2.764265e+10
2.763803e+10
2.763353e+10
2.762915e+10
2.762492e+10
2.762086e+10
2.761697e+10
2.761329e+10
2.760982e+10
2.760659e+10
2.760362e+10
2.760092e+10
2.759851e+10
2.759641e+10
2.759463e+10
2.759319e+10
2.759209e+10
2.759135e+10
2.759098e+10
2.649869e+10
2.649833e+10
2.649761e+10
2.649654e+10
2.649513e+10
2.649338e+10
2.649131e+10
2.648893e+10
2.648626e+10
2.648333e+10
2.648014e+10
2.647672e+10
2.647308e+10
2.646926e+10
2.646527e+10
2.646113e+10
2.645685e+10
2.645247e+10
2.644798e+10
2.644341e+10
2.643878e+10
2.643409e+10
2.642935e+10
2.642458e+10
2.641979e+10
2.641498e+10
2.641015e+10
2.640532e+10
2.640048e+10
2.639564e+10
2.639081e+10
2.638599e+10
2.638117e+10
2.637637e+10
2.637158e+10
2.636681e+10
2.636206e+10
2.635734e+10
2.635264e+10
2.634798e+10
2.634336e+10
2.633878e+10
2.633426e+10
2.632980e+10
2.632542e+10
2.632112e+10
2.631691e+10
2.631281e+10
2.630884e+10
2.630500e+10
2.630131e+10
2.629779e+10
2.629446e+10
2.629133e+10
2.628841e+10
2.628573e+10
2.628330e+10
2.628114e+10
2.627925e+10
2.627765e+10
2.627635e+10
2.627537e+10
2.627471e+10
2.627437e+10
2.516396e+10
2.516360e+10
2.516289e+10
2.516183e+10
2.516044e+10
2.515871e+10
2.515667e+10
2.515434e+10
2.515172e+10
2.514884e+10
2.514572e+10
2.514239e+10
2.513885e+10
2.513514e+10
2.513128e+10
2.512727e+10
2.512316e+10
2.511894e+10
2.511465e+10
2.511029e+10
2.510588e+10
2.510142e+10
2.509694e+10
2.509245e+10
2.508794e+10
2.508342e+10
2.507891e+10
2.507440e+10
2.506990e+10
2.506542e+10
2.506095e+10
2.505649e+10
2.505206e+10
2.504764e+10
2.504325e+10
2.503888e+10
2.503454e+10
2.503023e+10
2.502595e+10
2.502170e+10
2.501750e+10
2.501335e+10
2.500925e+10
2.500522e+10
2.500125e+10
2.499737e+10
2.499358e+10
2.498989e+10
2.498631e+10
2.498286e+10
2.497956e+10
2.497640e+10
2.497342e+10
2.497063e+10
2.496803e+10
2.496564e+10
2.496347e+10
2.496155e+10
2.495987e+10
2.495845e+10
2.495730e+10
2.495643e+10
2.495584e+10
2.495555e+10
2.382714e+10
2.382678e+10
2.382608e+10
2.382504e+10
2.382366e+10
2.382196e+10
2.381996e+10
2.381766e+10
2.381510e+10
2.381228e+10
2.380924e+10
2.380598e+10
2.380255e+10
2.379895e+10
2.379521e+10
2.379135e+10
2.378740e+10
2.378336e+10
2.377925e+10
2.377510e+10
2.377091e+10
2.376670e+10
2.376247e+10
2.375824e+10
2.375402e+10
2.374980e+10
2.374560e+10
2.374141e+10
2.373725e+10
2.373311e+10
2.372900e+10
2.372491e+10
2.372086e+10
2.371683e+10
2.371283e+10
2.370886e+10
2.370492e+10
2.370102e+10
2.369715e+10
2.369332e+10
2.368954e+10
2.368581e+10
2.368213e+10
2.367852e+10
2.367497e+10
2.367150e+10
2.366812e+10
2.366483e+10
2.366165e+10
2.365859e+10
2.365566e+10
2.365288e+10
2.365024e+10
2.364778e+10
2.364549e+10
2.364339e+10
2.364149e+10
2.363980e+10
2.363833e+10
2.363709e+10
2.363609e+10
2.363532e+10
2.363481e+10
2.363455e+10
2.248841e+10
2.248806e+10
2.248737e+10
2.248634e+10
2.248499e+10
2.248332e+10
2.248134e+10
2.247909e+10
2.247658e+10
2.247383e+10
2.247086e+10
2.246769e+10
2.246436e+10
2.246087e+10
2.245726e+10
2.245355e+10
2.244975e+10
2.244588e+10
2.244197e+10
2.243802e+10
2.243405e+10
2.243008e+10
2.242611e+10
2.242214e+10
2.241820e+10
2.241427e+10
2.241038e+10
2.240652e+10
2.240269e+10
2.239889e+10
2.239513e+10
2.239140e+10
2.238771e+10
2.238406e+10
2.238045e+10
2.237687e+10
2.237333e+10
2.236983e+10
2.236637e+10
2.236295e+10
2.235958e+10
2.235627e+10
2.235300e+10
2.234980e+10
2.234667e+10
2.234360e+10
2.234063e+10
2.233774e+10
2.233495e+10
2.233227e+10
2.232971e+10
2.232728e+10
2.232499e+10
2.232285e+10
2.232086e+10
2.231905e+10
2.231741e+10
2.231595e+10
2.231469e+10
2.231362e+10
2.231276e+10
2.231211e+10
2.231167e+10
2.231145e+10
2.114794e+10
2.114760e+10
2.114691e+10
2.114590e+10
2.114457e+10
2.114292e+10
2.114099e+10
2.113878e+10
2.113633e+10
2.113364e+10
2.113074e+10
2.112767e+10
2.112444e+10
2.112107e+10
2.111759e+10
2.111402e+10
2.111038e+10
2.110668e+10
2.110296e+10
2.109922e+10
2.109547e+10
2.109173e+10
2.108800e+10
2.108430e+10
2.108063e+10
2.107700e+10
2.107340e+10
2.106985e+10
2.106634e+10
2.106288e+10
2.105946e+10
2.105609e+10
2.105276e+10
2.104948e+10
2.104624e+10
2.104304e+10
2.103989e+10
2.103678e+10
2.103372e+10
2.103070e+10
2.102774e+10
2.102482e+10
2.102196e+10
2.101916e+10
2.101643e+10
2.101377e+10
2.101118e+10
2.100868e+10
2.100628e+10
2.100397e+10
2.100177e+10
2.099969e+10
2.099773e+10
2.099590e+10
2.099422e+10
2.099268e+10
2.099129e+10
2.099006e+10
2.098900e+10
2.098810e+10
2.098737e+10
2.098683e+10
2.098646e+10
2.098627e+10
1.980585e+10
1.980551e+10
1.980484e+10
1.980385e+10
1.980254e+10
1.980093e+10
1.979903e+10
1.979687e+10
1.979447e+10
1.979186e+10
1.978904e+10
1.978606e+10
1.978293e+10
1.977968e+10
1.977633e+10
1.977290e+10
1.976942e+10
1.976590e+10
1.976237e+10
1.975883e+10
1.975529e+10
1.975178e+10
1.974830e+10
1.974486e+10
1.974145e+10
1.973810e+10
1.973480e+10
1.973155e+10
1.972836e+10
1.972522e+10
1.972213e+10
1.971910e+10
1.971612e+10
1.971319e+10
1.971032e+10
1.970749e+10
1.970471e+10
1.970198e+10
1.969930e+10
1.969667e+10
1.969409e+10
1.969157e+10
1.968910e+10
1.968669e+10
1.968435e+10
1.968207e+10
1.967987e+10
1.967775e+10
1.967571e+10
1.967376e+10
1.967191e+10
1.967017e+10
1.966853e+10
1.966701e+10
1.966561e+10
1.966434e+10
1.966320e+10
1.966219e+10
1.966131e+10
1.966058e+10
1.965999e+10
1.965954e+10
1.965924e+10
1.965909e+10
1.846227e+10
1.846193e+10
1.846128e+10
1.846030e+10
1.845902e+10
1.845744e+10
1.845559e+10
1.845348e+10
1.845114e+10
1.844860e+10
1.844587e+10
1.844298e+10
1.843996e+10
1.843683e+10
1.843361e+10
1.843033e+10
1.842701e+10
1.842366e+10
1.842031e+10
1.841697e+10
1.841365e+10
1.841037e+10
1.840712e+10
1.840393e+10
1.840079e+10
1.839771e+10
1.839469e+10
1.839173e+10
1.838884e+10
1.838601e+10
1.838325e+10
1.838054e+10
1.837790e+10
1.837532e+10
1.837279e+10
1.837031e+10
1.836790e+10
1.836553e+10
1.836322e+10
1.836096e+10
1.835875e+10
1.835660e+10
1.835451e+10
1.835248e+10
1.835051e+10
1.834860e+10
1.834677e+10
1.834500e+10
1.834332e+10
1.834172e+10
1.834021e+10
1.833879e+10
1.833746e+10
1.833624e+10
1.833512e+10
1.833410e+10
1.833319e+10
1.833239e+10
1.833170e+10
1.833112e+10
1.833066e+10
1.833031e+10
1.833008e+10
1.832996e+10
1.711728e+10
1.711695e+10
1.711631e+10
1.711536e+10
1.711410e+10
1.711256e+10
1.711076e+10
1.710871e+10
1.710644e+10
1.710397e+10
1.710133e+10
1.709854e+10
1.709562e+10
1.709262e+10
1.708954e+10
1.708641e+10
1.708324e+10
1.708007e+10
1.707691e+10
1.707376e+10
1.707065e+10
1.706759e+10
1.706458e+10
1.706162e+10
1.705874e+10
1.705592e+10
1.705317e+10
1.705050e+10
1.704790e+10
1.704537e+10
1.704291e+10
1.704052e+10
1.703820e+10
1.703594e+10
1.703374e+10
1.703161e+10
1.702953e+10
1.702751e+10
1.702555e+10
1.702365e+10
1.702180e+10
1.702001e+10
1.701827e+10
1.701660e+10
1.701498e+10
1.701343e+10
1.701195e+10
1.701053e+10
1.700919e+10
1.700792e+10
1.700673e+10
1.700562e+10
1.700459e+10
1.700365e+10
1.700279e+10
1.700201e+10
1.700133e+10
1.700073e+10
1.700022e+10
1.699979e+10
1.699945e+10
1.699919e+10
1.699902e+10
1.699893e+10
1.577097e+10
1.577066e+10
1.577003e+10
1.576910e+10
1.576788e+10
1.576638e+10
1.576463e+10
1.576264e+10
1.576044e+10
1.575805e+10
1.575550e+10
1.575282e+10
1.575002e+10
1.574714e+10
1.574420e+10
1.574122e+10
1.573822e+10
1.573522e+10
1.573224e+10
1.572929e+10
1.572639e+10
1.572354e+10
1.572075e+10
1.571804e+10
1.571540e+10
1.571283e+10
1.571035e+10
1.570795e+10
1.570562e+10
1.570338e+10
1.570121e+10
1.569912e+10
1.569710e+10
1.569515e+10
1.569327e+10
1.569146e+10
1.568971e+10
1.568802e+10
1.568639e+10
1.568482e+10
1.568331e+10
1.568185e+10
1.568046e+10
1.567913e+10
1.567785e+10
1.567664e+10
1.567548e+10
1.567440e+10
1.567338e+10
1.567242e+10
1.567154e+10
1.567072e+10
1.566997e+10
1.566930e+10
1.566869e+10
1.566815e+10
1.566767e+10
1.566726e+10
1.566692e+10
1.566663e+10
1.566640e+10
1.566623e+10
1.566612e+10
1.566606e+10
1.442341e+10
1.442311e+10
1.442250e+10
1.442159e+10
1.442041e+10
1.441896e+10
1.441726e+10
1.441534e+10
1.441322e+10
1.441092e+10
1.440847e+10
1.440589e+10
1.440322e+10
1.440047e+10
1.439767e+10
1.439484e+10
1.439201e+10
1.438919e+10
1.438639e+10
1.438364e+10
1.438094e+10
1.437830e+10
1.437574e+10
1.437325e+10
1.437084e+10
1.436853e+10
1.436629e+10
1.436415e+10
1.436209e+10
1.436012e+10
1.435823e+10
1.435642e+10
1.435469e+10
1.435303e+10
1.435145e+10
1.434994e+10
1.434849e+10
1.434712e+10
1.434580e+10
1.434455e+10
1.434336e+10
1.434222e+10
1.434115e+10
1.434013e+10
1.433918e+10
1.433828e+10
1.433745e+10
1.433667e+10
1.433595e+10
1.433530e+10
1.433470e+10
1.433416e+10
1.433368e+10
1.433325e+10
1.433288e+10
1.433256e+10
1.433228e+10
1.433205e+10
1.433186e+10
1.433171e+10
1.433159e+10
1.433150e+10
1.433144e+10
1.433141e+10
1.307466e+10
1.307436e+10
1.307377e+10
1.307290e+10
1.307176e+10
1.307036e+10
1.306872e+10
1.306687e+10
1.306484e+10
1.306263e+10
1.306029e+10
1.305783e+10
1.305528e+10
1.305267e+10
1.305002e+10
1.304735e+10
1.304468e+10
1.304203e+10
1.303942e+10
1.303686e+10
1.303436e+10
1.303193e+10
1.302958e+10
1.302732e+10
1.302515e+10
1.302306e+10
1.302107e+10
1.301917e+10
1.301737e+10
1.301565e+10
1.301402e+10
1.301248e+10
1.301103e+10
1.300965e+10
1.300835e+10
1.300712e+10
1.300596e+10
1.300488e+10
1.300386e+10
1.300290e+10
1.300201e+10
1.300117e+10
1.300040e+10
1.299969e+10
1.299903e+10
1.299844e+10
1.299790e+10
1.299741e+10
1.299698e+10
1.299660e+10
1.299627e+10
1.299599e+10
1.299576e+10
1.299557e+10
1.299542e+10
1.299530e+10
1.299521e+10
1.299515e+10
1.299510e+10
1.299508e+10
1.299506e+10
1.299505e+10
1.299504e+10
1.299504e+10
1.172475e+10
1.172447e+10
1.172390e+10
1.172306e+10
1.172197e+10
1.172062e+10
1.171906e+10
1.171729e+10
1.171534e+10
1.171324e+10
1.171100e+10
1.170867e+10
1.170625e+10
1.170379e+10
1.170129e+10
1.169878e+10
1.169628e+10
1.169381e+10
1.169139e+10
1.168902e+10
1.168672e+10
1.168449e+10
1.168236e+10
1.168031e+10
1.167836e+10
1.167650e+10
1.167474e+10
1.167308e+10
1.167151e+10
1.167004e+10
1.166866e+10
1.166738e+10
1.166617e+10
1.166506e+10
1.166402e+10
1.166306e+10
1.166217e+10
1.166136e+10
1.166061e+10
1.165993e+10
1.165932e+10
1.165877e+10
1.165828e+10
1.165785e+10
1.165747e+10
1.165715e+10
1.165689e+10
1.165668e+10
1.165651e+10
1.165639e+10
1.165632e+10
1.165628e+10
1.165628e+10
1.165631e+10
1.165636e+10
1.165644e+10
1.165652e+10
1.165661e+10
1.165671e+10
1.165679e+10