<VTKFile type='UnstructuredGrid' version='0.1' byte_order='BigEndian'> 
<UnstructuredGrid> 
<Piece NumberOfPoints='  4225 ' NumberOfCells='  4096 '> 
<Points> 
<DataArray type='Float32' NumberOfComponents='3' Format='ascii'> 
0.000000e+00 0.000000e+00 0.000000e+00 
4.687500e+04 0.000000e+00 0.000000e+00 
9.375000e+04 0.000000e+00 0.000000e+00 
1.406250e+05 0.000000e+00 0.000000e+00 
1.875000e+05 0.000000e+00 0.000000e+00 
2.343750e+05 0.000000e+00 0.000000e+00 
2.812500e+05 0.000000e+00 0.000000e+00 
3.281250e+05 0.000000e+00 0.000000e+00 
3.750000e+05 0.000000e+00 0.000000e+00 
4.218750e+05 0.000000e+00 0.000000e+00 
4.687500e+05 0.000000e+00 0.000000e+00 
5.156250e+05 0.000000e+00 0.000000e+00 
5.625000e+05 0.000000e+00 0.000000e+00 
6.093750e+05 0.000000e+00 0.000000e+00 
6.562500e+05 0.000000e+00 0.000000e+00 
7.031250e+05 0.000000e+00 0.000000e+00 
7.500000e+05 0.000000e+00 0.000000e+00 
7.968750e+05 0.000000e+00 0.000000e+00 
8.437500e+05 0.000000e+00 0.000000e+00 
8.906250e+05 0.000000e+00 0.000000e+00 
9.375000e+05 0.000000e+00 0.000000e+00 
9.843750e+05 0.000000e+00 0.000000e+00 
1.031250e+06 0.000000e+00 0.000000e+00 
1.078125e+06 0.000000e+00 0.000000e+00 
1.125000e+06 0.000000e+00 0.000000e+00 
1.171875e+06 0.000000e+00 0.000000e+00 
1.218750e+06 0.000000e+00 0.000000e+00 
1.265625e+06 0.000000e+00 0.000000e+00 
1.312500e+06 0.000000e+00 0.000000e+00 
1.359375e+06 0.000000e+00 0.000000e+00 
1.406250e+06 0.000000e+00 0.000000e+00 
1.453125e+06 0.000000e+00 0.000000e+00 
1.500000e+06 0.000000e+00 0.000000e+00 
1.546875e+06 0.000000e+00 0.000000e+00 
1.593750e+06 0.000000e+00 0.000000e+00 
1.640625e+06 0.000000e+00 0.000000e+00 
1.687500e+06 0.000000e+00 0.000000e+00 
1.734375e+06 0.000000e+00 0.000000e+00 
1.781250e+06 0.000000e+00 0.000000e+00 
1.828125e+06 0.000000e+00 0.000000e+00 
1.875000e+06 0.000000e+00 0.000000e+00 
1.921875e+06 0.000000e+00 0.000000e+00 
1.968750e+06 0.000000e+00 0.000000e+00 
2.015625e+06 0.000000e+00 0.000000e+00 
2.062500e+06 0.000000e+00 0.000000e+00 
2.109375e+06 0.000000e+00 0.000000e+00 
2.156250e+06 0.000000e+00 0.000000e+00 
2.203125e+06 0.000000e+00 0.000000e+00 
2.250000e+06 0.000000e+00 0.000000e+00 
2.296875e+06 0.000000e+00 0.000000e+00 
2.343750e+06 0.000000e+00 0.000000e+00 
2.390625e+06 0.000000e+00 0.000000e+00 
2.437500e+06 0.000000e+00 0.000000e+00 
2.484375e+06 0.000000e+00 0.000000e+00 
2.531250e+06 0.000000e+00 0.000000e+00 
2.578125e+06 0.000000e+00 0.000000e+00 
2.625000e+06 0.000000e+00 0.000000e+00 
2.671875e+06 0.000000e+00 0.000000e+00 
2.718750e+06 0.000000e+00 0.000000e+00 
2.765625e+06 0.000000e+00 0.000000e+00 
2.812500e+06 0.000000e+00 0.000000e+00 
2.859375e+06 0.000000e+00 0.000000e+00 
2.906250e+06 0.000000e+00 0.000000e+00 
2.953125e+06 0.000000e+00 0.000000e+00 
3.000000e+06 0.000000e+00 0.000000e+00 
0.000000e+00 4.687500e+04 0.000000e+00 
4.687500e+04 4.687500e+04 0.000000e+00 
9.375000e+04 4.687500e+04 0.000000e+00 
1.406250e+05 4.687500e+04 0.000000e+00 
1.875000e+05 4.687500e+04 0.000000e+00 
2.343750e+05 4.687500e+04 0.000000e+00 
2.812500e+05 4.687500e+04 0.000000e+00 
3.281250e+05 4.687500e+04 0.000000e+00 
3.750000e+05 4.687500e+04 0.000000e+00 
4.218750e+05 4.687500e+04 0.000000e+00 
4.687500e+05 4.687500e+04 0.000000e+00 
5.156250e+05 4.687500e+04 0.000000e+00 
5.625000e+05 4.687500e+04 0.000000e+00 
6.093750e+05 4.687500e+04 0.000000e+00 
6.562500e+05 4.687500e+04 0.000000e+00 
7.031250e+05 4.687500e+04 0.000000e+00 
7.500000e+05 4.687500e+04 0.000000e+00 
7.968750e+05 4.687500e+04 0.000000e+00 
8.437500e+05 4.687500e+04 0.000000e+00 
8.906250e+05 4.687500e+04 0.000000e+00 
9.375000e+05 4.687500e+04 0.000000e+00 
9.843750e+05 4.687500e+04 0.000000e+00 
1.031250e+06 4.687500e+04 0.000000e+00 
1.078125e+06 4.687500e+04 0.000000e+00 
1.125000e+06 4.687500e+04 0.000000e+00 
1.171875e+06 4.687500e+04 0.000000e+00 
1.218750e+06 4.687500e+04 0.000000e+00 
1.265625e+06 4.687500e+04 0.000000e+00 
1.312500e+06 4.687500e+04 0.000000e+00 
1.359375e+06 4.687500e+04 0.000000e+00 
1.406250e+06 4.687500e+04 0.000000e+00 
1.453125e+06 4.687500e+04 0.000000e+00 
1.500000e+06 4.687500e+04 0.000000e+00 
1.546875e+06 4.687500e+04 0.000000e+00 
1.593750e+06 4.687500e+04 0.000000e+00 
1.640625e+06 4.687500e+04 0.000000e+00 
1.687500e+06 4.687500e+04 0.000000e+00 
1.734375e+06 4.687500e+04 0.000000e+00 
1.781250e+06 4.687500e+04 0.000000e+00 
1.828125e+06 4.687500e+04 0.000000e+00 
1.875000e+06 4.687500e+04 0.000000e+00 
1.921875e+06 4.687500e+04 0.000000e+00 
1.968750e+06 4.687500e+04 0.000000e+00 
2.015625e+06 4.687500e+04 0.000000e+00 
2.062500e+06 4.687500e+04 0.000000e+00 
2.109375e+06 4.687500e+04 0.000000e+00 
2.156250e+06 4.687500e+04 0.000000e+00 
2.203125e+06 4.687500e+04 0.000000e+00 
2.250000e+06 4.687500e+04 0.000000e+00 
2.296875e+06 4.687500e+04 0.000000e+00 
2.343750e+06 4.687500e+04 0.000000e+00 
2.390625e+06 4.687500e+04 0.000000e+00 
2.437500e+06 4.687500e+04 0.000000e+00 
2.484375e+06 4.687500e+04 0.000000e+00 
2.531250e+06 4.687500e+04 0.000000e+00 
2.578125e+06 4.687500e+04 0.000000e+00 
2.625000e+06 4.687500e+04 0.000000e+00 
2.671875e+06 4.687500e+04 0.000000e+00 
2.718750e+06 4.687500e+04 0.000000e+00 
2.765625e+06 4.687500e+04 0.000000e+00 
2.812500e+06 4.687500e+04 0.000000e+00 
2.859375e+06 4.687500e+04 0.000000e+00 
2.906250e+06 4.687500e+04 0.000000e+00 
2.953125e+06 4.687500e+04 0.000000e+00 
3.000000e+06 4.687500e+04 0.000000e+00 
0.000000e+00 9.375000e+04 0.000000e+00 
4.687500e+04 9.375000e+04 0.000000e+00 
9.375000e+04 9.375000e+04 0.000000e+00 
1.406250e+05 9.375000e+04 0.000000e+00 
1.875000e+05 9.375000e+04 0.000000e+00 
2.343750e+05 9.375000e+04 0.000000e+00 
2.812500e+05 9.375000e+04 0.000000e+00 
3.281250e+05 9.375000e+04 0.000000e+00 
3.750000e+05 9.375000e+04 0.000000e+00 
4.218750e+05 9.375000e+04 0.000000e+00 
4.687500e+05 9.375000e+04 0.000000e+00 
5.156250e+05 9.375000e+04 0.000000e+00 
5.625000e+05 9.375000e+04 0.000000e+00 
6.093750e+05 9.375000e+04 0.000000e+00 
6.562500e+05 9.375000e+04 0.000000e+00 
7.031250e+05 9.375000e+04 0.000000e+00 
7.500000e+05 9.375000e+04 0.000000e+00 
7.968750e+05 9.375000e+04 0.000000e+00 
8.437500e+05 9.375000e+04 0.000000e+00 
8.906250e+05 9.375000e+04 0.000000e+00 
9.375000e+05 9.375000e+04 0.000000e+00 
9.843750e+05 9.375000e+04 0.000000e+00 
1.031250e+06 9.375000e+04 0.000000e+00 
1.078125e+06 9.375000e+04 0.000000e+00 
1.125000e+06 9.375000e+04 0.000000e+00 
1.171875e+06 9.375000e+04 0.000000e+00 
1.218750e+06 9.375000e+04 0.000000e+00 
1.265625e+06 9.375000e+04 0.000000e+00 
1.312500e+06 9.375000e+04 0.000000e+00 
1.359375e+06 9.375000e+04 0.000000e+00 
1.406250e+06 9.375000e+04 0.000000e+00 
1.453125e+06 9.375000e+04 0.000000e+00 
1.500000e+06 9.375000e+04 0.000000e+00 
1.546875e+06 9.375000e+04 0.000000e+00 
1.593750e+06 9.375000e+04 0.000000e+00 
1.640625e+06 9.375000e+04 0.000000e+00 
1.687500e+06 9.375000e+04 0.000000e+00 
1.734375e+06 9.375000e+04 0.000000e+00 
1.781250e+06 9.375000e+04 0.000000e+00 
1.828125e+06 9.375000e+04 0.000000e+00 
1.875000e+06 9.375000e+04 0.000000e+00 
1.921875e+06 9.375000e+04 0.000000e+00 
1.968750e+06 9.375000e+04 0.000000e+00 
2.015625e+06 9.375000e+04 0.000000e+00 
2.062500e+06 9.375000e+04 0.000000e+00 
2.109375e+06 9.375000e+04 0.000000e+00 
2.156250e+06 9.375000e+04 0.000000e+00 
2.203125e+06 9.375000e+04 0.000000e+00 
2.250000e+06 9.375000e+04 0.000000e+00 
2.296875e+06 9.375000e+04 0.000000e+00 
2.343750e+06 9.375000e+04 0.000000e+00 
2.390625e+06 9.375000e+04 0.000000e+00 
2.437500e+06 9.375000e+04 0.000000e+00 
2.484375e+06 9.375000e+04 0.000000e+00 
2.531250e+06 9.375000e+04 0.000000e+00 
2.578125e+06 9.375000e+04 0.000000e+00 
2.625000e+06 9.375000e+04 0.000000e+00 
2.671875e+06 9.375000e+04 0.000000e+00 
2.718750e+06 9.375000e+04 0.000000e+00 
2.765625e+06 9.375000e+04 0.000000e+00 
2.812500e+06 9.375000e+04 0.000000e+00 
2.859375e+06 9.375000e+04 0.000000e+00 
2.906250e+06 9.375000e+04 0.000000e+00 
2.953125e+06 9.375000e+04 0.000000e+00 
3.000000e+06 9.375000e+04 0.000000e+00 
0.000000e+00 1.406250e+05 0.000000e+00 
4.687500e+04 1.406250e+05 0.000000e+00 
9.375000e+04 1.406250e+05 0.000000e+00 
1.406250e+05 1.406250e+05 0.000000e+00 
1.875000e+05 1.406250e+05 0.000000e+00 
2.343750e+05 1.406250e+05 0.000000e+00 
2.812500e+05 1.406250e+05 0.000000e+00 
3.281250e+05 1.406250e+05 0.000000e+00 
3.750000e+05 1.406250e+05 0.000000e+00 
4.218750e+05 1.406250e+05 0.000000e+00 
4.687500e+05 1.406250e+05 0.000000e+00 
5.156250e+05 1.406250e+05 0.000000e+00 
5.625000e+05 1.406250e+05 0.000000e+00 
6.093750e+05 1.406250e+05 0.000000e+00 
6.562500e+05 1.406250e+05 0.000000e+00 
7.031250e+05 1.406250e+05 0.000000e+00 
7.500000e+05 1.406250e+05 0.000000e+00 
7.968750e+05 1.406250e+05 0.000000e+00 
8.437500e+05 1.406250e+05 0.000000e+00 
8.906250e+05 1.406250e+05 0.000000e+00 
9.375000e+05 1.406250e+05 0.000000e+00 
9.843750e+05 1.406250e+05 0.000000e+00 
1.031250e+06 1.406250e+05 0.000000e+00 
1.078125e+06 1.406250e+05 0.000000e+00 
1.125000e+06 1.406250e+05 0.000000e+00 
1.171875e+06 1.406250e+05 0.000000e+00 
1.218750e+06 1.406250e+05 0.000000e+00 
1.265625e+06 1.406250e+05 0.000000e+00 
1.312500e+06 1.406250e+05 0.000000e+00 
1.359375e+06 1.406250e+05 0.000000e+00 
1.406250e+06 1.406250e+05 0.000000e+00 
1.453125e+06 1.406250e+05 0.000000e+00 
1.500000e+06 1.406250e+05 0.000000e+00 
1.546875e+06 1.406250e+05 0.000000e+00 
1.593750e+06 1.406250e+05 0.000000e+00 
1.640625e+06 1.406250e+05 0.000000e+00 
1.687500e+06 1.406250e+05 0.000000e+00 
1.734375e+06 1.406250e+05 0.000000e+00 
1.781250e+06 1.406250e+05 0.000000e+00 
1.828125e+06 1.406250e+05 0.000000e+00 
1.875000e+06 1.406250e+05 0.000000e+00 
1.921875e+06 1.406250e+05 0.000000e+00 
1.968750e+06 1.406250e+05 0.000000e+00 
2.015625e+06 1.406250e+05 0.000000e+00 
2.062500e+06 1.406250e+05 0.000000e+00 
2.109375e+06 1.406250e+05 0.000000e+00 
2.156250e+06 1.406250e+05 0.000000e+00 
2.203125e+06 1.406250e+05 0.000000e+00 
2.250000e+06 1.406250e+05 0.000000e+00 
[...]
<CellData Scalars='scalars'>
<DataArray type='Float32' Name='p' Format='ascii'> 
4.186709e+10
4.186706e+10
4.186700e+10
4.186692e+10
4.186680e+10
4.186666e+10
4.186649e+10
4.186629e+10
4.186607e+10
4.186582e+10
4.186554e+10
4.186524e+10
4.186492e+10
4.186457e+10
4.186420e+10
4.186380e+10
4.186339e+10
4.186295e+10
4.186250e+10
4.186203e+10
4.186155e+10
4.186104e+10
4.186053e+10
4.186000e+10
4.185946e+10
4.185891e+10
4.185834e+10
4.185778e+10
4.185720e+10
4.185662e+10
4.185604e+10
4.185546e+10
4.185487e+10
4.185429e+10
4.185370e+10
4.185312e+10
4.185255e+10
4.185198e+10
4.185142e+10
4.185087e+10
4.185033e+10
4.184980e+10
4.184928e+10
4.184878e+10
4.184830e+10
4.184782e+10
4.184737e+10
4.184694e+10
4.184652e+10
4.184613e+10
4.184576e+10
4.184541e+10
4.184509e+10
4.184478e+10
4.184451e+10
4.184426e+10
4.184403e+10
4.184384e+10
4.184367e+10
4.184353e+10
4.184341e+10
4.184333e+10
4.184327e+10
4.184324e+10
4.057617e+10
4.057614e+10
4.057608e+10
4.057599e+10
4.057588e+10
4.057574e+10
4.057557e+10
4.057537e+10
4.057515e+10
4.057490e+10
4.057462e+10
4.057432e+10
4.057400e+10
4.057365e+10
4.057328e+10
4.057289e+10
4.057248e+10
4.057204e+10
4.057159e+10
4.057112e+10
4.057064e+10
4.057014e+10
4.056962e+10
4.056909e+10
4.056855e+10
4.056800e+10
4.056744e+10
4.056688e+10
4.056630e+10
4.056573e+10
4.056515e+10
4.056456e+10
4.056398e+10
4.056339e+10
4.056281e+10
4.056224e+10
4.056166e+10
4.056110e+10
4.056054e+10
4.055999e+10
4.055945e+10
4.055892e+10
4.055840e+10
4.055790e+10
4.055742e+10
4.055695e+10
4.055650e+10
4.055606e+10
4.055565e+10
4.055526e+10
4.055489e+10
4.055454e+10
4.055422e+10
4.055392e+10
4.055364e+10
4.055339e+10
4.055317e+10
4.055297e+10
4.055280e+10
4.055266e+10
4.055255e+10
4.055246e+10
4.055240e+10
4.055237e+10
3.928338e+10
3.928336e+10
3.928330e+10
3.928321e+10
3.928310e+10
3.928296e+10
3.928279e+10
3.928259e+10
3.928237e+10
3.928212e+10
3.928185e+10
3.928155e+10
3.928123e+10
3.928088e+10
3.928051e+10
3.928012e+10
3.927971e+10
3.927928e+10
3.927883e+10
3.927836e+10
3.927788e+10
3.927738e+10
3.927687e+10
3.927634e+10
3.927581e+10
3.927526e+10
3.927470e+10
3.927414e+10
3.927357e+10
3.927300e+10
3.927242e+10
3.927184e+10
3.927125e+10
3.927067e+10
3.927010e+10
3.926952e+10
3.926895e+10
3.926839e+10
3.926783e+10
3.926728e+10
3.926675e+10
3.926622e+10
3.926571e+10
3.926521e+10
3.926473e+10
3.926426e+10
3.926381e+10
3.926338e+10
3.926297e+10
3.926258e+10
3.926221e+10
3.926186e+10
3.926154e+10
3.926124e+10
3.926097e+10
3.926072e+10
3.926050e+10
3.926030e+10
3.926013e+10
3.925999e+10
3.925988e+10
3.925979e+10
3.925974e+10
3.925971e+10
3.798874e+10
3.798871e+10
3.798866e+10
3.798857e+10
3.798846e+10
3.798832e+10
3.798815e+10
3.798796e+10
3.798774e+10
3.798749e+10
3.798722e+10
3.798692e+10
3.798660e+10
3.798626e+10
3.798589e+10
3.798550e+10
3.798510e+10
3.798467e+10
3.798422e+10
3.798376e+10
3.798328e+10
3.798278e+10
3.798228e+10
3.798175e+10
3.798122e+10
3.798068e+10
3.798013e+10
3.797957e+10
3.797900e+10
3.797843e+10
3.797785e+10
3.797728e+10
3.797670e+10
3.797612e+10
3.797555e+10
3.797498e+10
3.797441e+10
3.797385e+10
3.797330e+10
3.797276e+10
3.797223e+10
3.797170e+10
3.797120e+10
3.797070e+10
3.797022e+10
3.796976e+10
3.796931e+10
3.796888e+10
3.796848e+10
3.796809e+10
3.796772e+10
3.796738e+10
3.796706e+10
3.796676e+10
3.796649e+10
3.796624e+10
3.796602e+10
3.796583e+10
3.796566e+10
3.796552e+10
3.796541e+10
3.796532e+10
3.796527e+10
3.796524e+10
3.669224e+10
3.669221e+10
3.669216e+10
3.669207e+10
3.669196e+10
3.669182e+10
3.669166e+10
3.669146e+10
3.669125e+10
3.669100e+10
3.669073e+10
3.669044e+10
3.669012e+10
3.668978e+10
3.668942e+10
3.668903e+10
3.668863e+10
3.668821e+10
3.668777e+10
3.668731e+10
3.668683e+10
3.668634e+10
3.668584e+10
3.668532e+10
3.668479e+10
3.668425e+10
3.668371e+10
3.668315e+10
3.668259e+10
3.668203e+10
3.668146e+10
3.668089e+10
3.668032e+10
3.667975e+10
3.667918e+10
3.667861e+10
3.667805e+10
3.667750e+10
3.667695e+10
3.667641e+10
3.667589e+10
3.667537e+10
3.667486e+10
3.667437e+10
3.667390e+10
3.667344e+10
3.667300e+10
3.667258e+10
3.667217e+10
3.667179e+10
3.667143e+10
3.667108e+10
3.667077e+10
3.667047e+10
3.667020e+10
3.666996e+10
3.666974e+10
3.666955e+10
3.666938e+10
3.666924e+10
3.666913e+10
3.666905e+10
3.666899e+10
3.666896e+10
3.539388e+10
3.539385e+10
3.539380e+10
3.539372e+10
3.539361e+10
3.539347e+10
3.539330e+10
3.539311e+10
3.539290e+10
3.539266e+10
3.539239e+10
3.539210e+10
3.539179e+10
3.539145e+10
3.539109e+10
3.539071e+10
3.539031e+10
3.538990e+10
3.538946e+10
3.538901e+10
3.538854e+10
3.538805e+10
3.538756e+10
3.538705e+10
3.538652e+10
3.538599e+10
3.538545e+10
3.538490e+10
3.538435e+10
3.538379e+10
3.538323e+10
3.538267e+10
3.538210e+10
3.538154e+10
3.538098e+10
3.538042e+10
3.537987e+10
3.537932e+10
3.537878e+10
3.537825e+10
3.537773e+10
3.537721e+10
3.537672e+10
3.537623e+10
3.537576e+10
3.537531e+10
3.537487e+10
3.537446e+10
3.537406e+10
3.537368e+10
3.537332e+10
3.537298e+10
3.537267e+10
3.537238e+10
3.537211e+10
3.537187e+10
3.537166e+10
3.537147e+10
3.537130e+10
3.537117e+10
3.537105e+10
3.537097e+10
3.537092e+10
3.537089e+10
3.409366e+10
3.409364e+10
3.409358e+10
3.409350e+10
3.409339e+10
3.409326e+10
3.409309e+10
3.409291e+10
3.409269e+10
3.409246e+10
3.409219e+10
3.409191e+10
3.409160e+10
3.409127e+10
3.409092e+10
3.409054e+10
3.409015e+10
3.408974e+10
3.408931e+10
3.408886e+10
3.408840e+10
3.408792e+10
3.408743e+10
3.408693e+10
3.408641e+10
3.408589e+10
3.408536e+10
3.408482e+10
3.408427e+10
3.408372e+10
3.408317e+10
3.408261e+10
3.408206e+10
3.408150e+10
3.408095e+10
3.408040e+10
3.407985e+10
3.407931e+10
3.407878e+10
3.407826e+10
3.407775e+10
3.407724e+10
3.407675e+10
3.407628e+10
3.407581e+10
3.407537e+10
3.407494e+10
3.407452e+10
3.407413e+10
3.407376e+10
3.407340e+10
3.407307e+10
3.407276e+10
3.407248e+10
3.407222e+10
3.407198e+10
3.407177e+10
3.407158e+10
3.407142e+10
3.407128e+10
3.407117e+10
3.407109e+10
3.407104e+10
3.407101e+10
3.279159e+10
3.279156e+10
3.279151e+10
3.279142e+10
3.279132e+10
3.279119e+10
3.279103e+10
3.279084e+10
3.279063e+10
3.279040e+10
3.279014e+10
3.278986e+10
3.278956e+10
3.278923e+10
3.278889e+10
3.278852e+10
3.278813e+10
3.278773e+10
3.278731e+10
3.278687e+10
3.278641e+10
3.278594e+10
3.278546e+10
3.278497e+10
3.278446e+10
3.278395e+10
3.278343e+10
3.278290e+10
3.278236e+10
3.278182e+10
3.278128e+10
3.278073e+10
3.278018e+10
3.277964e+10
3.277909e+10
3.277855e+10
3.277802e+10
3.277749e+10
3.277696e+10
3.277645e+10
3.277595e+10
3.277545e+10
3.277497e+10
3.277450e+10
3.277405e+10
3.277361e+10
3.277319e+10
3.277278e+10
3.277239e+10
3.277203e+10
3.277168e+10
3.277135e+10
3.277105e+10
3.277077e+10
3.277051e+10
3.277028e+10
3.277007e+10
3.276989e+10
3.276973e+10
3.276959e+10
3.276949e+10
3.276941e+10
3.276935e+10
3.276933e+10
3.148765e+10
3.148762e+10
3.148757e+10
3.148749e+10
3.148739e+10
3.148726e+10
3.148710e+10
3.148692e+10
3.148672e+10
3.148649e+10
3.148624e+10
3.148596e+10
3.148566e+10
3.148535e+10
3.148501e+10
3.148465e+10
3.148427e+10
3.148387e+10
3.148346e+10
3.148303e+10
3.148258e+10
3.148212e+10
3.148165e+10
3.148117e+10
3.148067e+10
3.148017e+10
3.147965e+10
3.147914e+10
3.147861e+10
3.147808e+10
3.147755e+10
3.147701e+10
3.147648e+10
3.147594e+10
3.147541e+10
3.147488e+10
3.147436e+10
3.147384e+10
3.147332e+10
3.147282e+10
3.147233e+10
3.147184e+10
3.147137e+10
3.147091e+10
3.147046e+10
3.147003e+10
3.146962e+10
3.146922e+10
3.146885e+10
3.146849e+10
3.146815e+10
3.146783e+10
3.146753e+10
3.146725e+10
3.146700e+10
3.146677e+10
3.146657e+10
3.146639e+10
3.146623e+10
3.146610e+10
3.146600e+10
3.146592e+10
3.146587e+10
3.146584e+10
3.018186e+10
3.018183e+10
3.018178e+10
3.018170e+10
3.018160e+10
3.018148e+10
3.018132e+10
3.018115e+10
3.018095e+10
3.018072e+10
3.018048e+10
3.018021e+10
3.017992e+10
3.017961e+10
3.017927e+10
3.017892e+10
3.017855e+10
3.017816e+10
3.017776e+10
3.017734e+10
3.017691e+10
3.017646e+10
3.017600e+10
3.017552e+10
3.017504e+10
3.017455e+10
3.017405e+10
3.017354e+10
3.017303e+10
3.017251e+10
3.017199e+10
3.017147e+10
3.017094e+10
3.017042e+10
3.016990e+10
3.016938e+10
3.016887e+10
3.016836e+10
3.016786e+10
3.016737e+10
3.016688e+10
3.016641e+10
3.016595e+10
3.016550e+10
3.016507e+10
3.016465e+10
3.016424e+10
3.016385e+10
3.016348e+10
3.016313e+10
3.016280e+10
3.016249e+10
3.016220e+10
3.016193e+10
3.016168e+10
3.016146e+10
3.016126e+10
3.016108e+10
3.016093e+10
3.016080e+10
3.016070e+10
3.016063e+10
3.016057e+10
3.016055e+10
2.887421e+10
2.887418e+10
2.887413e+10
2.887406e+10
2.887396e+10
2.887384e+10
2.887369e+10
2.887352e+10
2.887332e+10
2.887310e+10
2.887286e+10
2.887260e+10
2.887232e+10
2.887201e+10
2.887169e+10
2.887135e+10
2.887099e+10
2.887061e+10
2.887022e+10
2.886981e+10
2.886938e+10
2.886895e+10
2.886850e+10
2.886804e+10
2.886757e+10
2.886709e+10
2.886660e+10
2.886611e+10
2.886561e+10
2.886510e+10
2.886459e+10
2.886409e+10
2.886358e+10
2.886307e+10
2.886256e+10
2.886206e+10
2.886156e+10
2.886106e+10
2.886057e+10
2.886009e+10
2.885962e+10
2.885916e+10
2.885871e+10
2.885828e+10
2.885785e+10
2.885744e+10
2.885705e+10
2.885667e+10
2.885631e+10
2.885597e+10
2.885565e+10
2.885534e+10
2.885506e+10
2.885480e+10
2.885456e+10
2.885434e+10
2.885414e+10
2.885397e+10
2.885382e+10
2.885370e+10
2.885360e+10
2.885353e+10
2.885348e+10
2.885345e+10
2.756470e+10
2.756468e+10
2.756463e+10
2.756456e+10
2.756446e+10
2.756434e+10
2.756420e+10
2.756403e+10
2.756384e+10
2.756363e+10
2.756340e+10
2.756314e+10
2.756287e+10
2.756257e+10
2.756226e+10
2.756193e+10
2.756158e+10
2.756121e+10
2.756083e+10
2.756043e+10
2.756002e+10
2.755960e+10
2.755916e+10
2.755871e+10
2.755825e+10
2.755779e+10
2.755732e+10
2.755684e+10
2.755635e+10
2.755586e+10
2.755537e+10
2.755487e+10
2.755438e+10
2.755388e+10
2.755339e+10
2.755290e+10
2.755242e+10
2.755194e+10
2.755146e+10
2.755100e+10
2.755054e+10
2.755009e+10
2.754966e+10
2.754923e+10
2.754882e+10
2.754842e+10
2.754804e+10
2.754768e+10
2.754733e+10
2.754699e+10
2.754668e+10
2.754638e+10
2.754611e+10
2.754586e+10
2.754562e+10
2.754541e+10
2.754522e+10
2.754505e+10
2.754491e+10
2.754479e+10
2.754469e+10
2.754462e+10
2.754457e+10
2.754455e+10
2.625334e+10
2.625332e+10
2.625327e+10
2.625320e+10
2.625311e+10
2.625299e+10
2.625285e+10
2.625269e+10
2.625251e+10
2.625230e+10
2.625208e+10
2.625183e+10
2.625157e+10
2.625128e+10
2.625098e+10
2.625066e+10
2.625032e+10
2.624996e+10
2.624959e+10
2.624921e+10
2.624881e+10
2.624840e+10
2.624798e+10
2.624754e+10
2.624710e+10
2.624665e+10
2.624619e+10
2.624573e+10
2.624526e+10
2.624479e+10
2.624431e+10
2.624383e+10
2.624335e+10
2.624287e+10
2.624240e+10
2.624192e+10
2.624145e+10
2.624099e+10
2.624053e+10
2.624008e+10
2.623964e+10
2.623921e+10
2.623878e+10
2.623837e+10
2.623797e+10
2.623759e+10
2.623722e+10
2.623686e+10
2.623653e+10
2.623620e+10
2.623590e+10
2.623562e+10
2.623535e+10
2.623510e+10
2.623488e+10
2.623467e+10
2.623449e+10
2.623433e+10
2.623419e+10
2.623407e+10
2.623398e+10
2.623391e+10
2.623386e+10
2.623384e+10
2.494013e+10
2.494011e+10
2.494006e+10
2.493999e+10
2.493990e+10
2.493979e+10
2.493966e+10
2.493950e+10
2.493932e+10
2.493913e+10
2.493891e+10
2.493867e+10
2.493842e+10
2.493814e+10
2.493785e+10
2.493754e+10
2.493721e+10
2.493687e+10
2.493651e+10
2.493614e+10
2.493576e+10
2.493536e+10
2.493495e+10
2.493454e+10
2.493411e+10
2.493368e+10
2.493323e+10
2.493279e+10
2.493233e+10
2.493188e+10
2.493142e+10
2.493096e+10
2.493049e+10
2.493003e+10
2.492957e+10
2.492912e+10
2.492866e+10
2.492822e+10
2.492777e+10
2.492734e+10
2.492691e+10
2.492650e+10
2.492609e+10
2.492569e+10
2.492531e+10
2.492494e+10
2.492458e+10
2.492424e+10
2.492391e+10
2.492360e+10
2.492331e+10
2.492303e+10
2.492278e+10
2.492254e+10
2.492232e+10
2.492213e+10
2.492195e+10
2.492179e+10
2.492166e+10
2.492155e+10
2.492146e+10
2.492139e+10
2.492134e+10
2.492132e+10
2.362506e+10
2.362504e+10
2.362499e+10
2.362493e+10
2.362484e+10
2.362474e+10
2.362461e+10
2.362446e+10
2.362429e+10
2.362410e+10
2.362389e+10
2.362366e+10
2.362341e+10
2.362315e+10
2.362287e+10
2.362257e+10
2.362226e+10
2.362193e+10
2.362159e+10
2.362123e+10
2.362086e+10
2.362048e+10
2.362009e+10
2.361969e+10
2.361928e+10
2.361886e+10
2.361844e+10
2.361801e+10
2.361757e+10
2.361713e+10
2.361669e+10
2.361625e+10
2.361581e+10
2.361536e+10
2.361492e+10
2.361448e+10
2.361405e+10
2.361362e+10
2.361319e+10
2.361278e+10
2.361237e+10
2.361197e+10
2.361157e+10
2.361119e+10
2.361083e+10
2.361047e+10
2.361013e+10
2.360980e+10
2.360948e+10
2.360919e+10
2.360891e+10
2.360864e+10
2.360839e+10
2.360817e+10
2.360796e+10
2.360777e+10
2.360760e+10
2.360745e+10
2.360732e+10
2.360721e+10
2.360713e+10
2.360706e+10
2.360702e+10
2.360700e+10
2.230814e+10
2.230812e+10
2.230808e+10
2.230801e+10
2.230793e+10
2.230783e+10
2.230770e+10
2.230756e+10
2.230740e+10
2.230722e+10
2.230702e+10
2.230680e+10
2.230656e+10
2.230631e+10
2.230604e+10
2.230576e+10
2.230546e+10
2.230514e+10
2.230482e+10
2.230448e+10
2.230412e+10
2.230376e+10
2.230338e+10
2.230300e+10
2.230261e+10
2.230221e+10
2.230180e+10
2.230139e+10
2.230098e+10
2.230056e+10
2.230014e+10
2.229971e+10
2.229929e+10
2.229886e+10
2.229844e+10
2.229802e+10
2.229761e+10
2.229719e+10
2.229679e+10
2.229639e+10
2.229600e+10
2.229561e+10
2.229524e+10
2.229488e+10
2.229452e+10
2.229418e+10
2.229386e+10
2.229354e+10
2.229324e+10
2.229296e+10
2.229269e+10
2.229243e+10
2.229220e+10
2.229198e+10
2.229178e+10
2.229160e+10
2.229144e+10
2.229129e+10
2.229117e+10
2.229107e+10
2.229099e+10
2.229092e+10
2.229088e+10
2.229086e+10
2.098937e+10
2.098935e+10
2.098931e+10
2.098925e+10
2.098917e+10
2.098907e+10
2.098895e+10
2.098882e+10
2.098866e+10
2.098849e+10
2.098830e+10
2.098809e+10
2.098787e+10
2.098763e+10
2.098737e+10
2.098710e+10
2.098681e+10
2.098651e+10
2.098620e+10
2.098588e+10
2.098554e+10
2.098520e+10
2.098484e+10
2.098447e+10
2.098410e+10
2.098372e+10
2.098333e+10
2.098294e+10
2.098255e+10
2.098215e+10
2.098175e+10
2.098134e+10
2.098094e+10
2.098053e+10
2.098013e+10
2.097973e+10
2.097934e+10
2.097895e+10
2.097856e+10
2.097818e+10
2.097781e+10
2.097744e+10
2.097708e+10
2.097674e+10
2.097640e+10
2.097608e+10
2.097577e+10
2.097547e+10
2.097518e+10
2.097491e+10
2.097465e+10
2.097441e+10
2.097419e+10
2.097398e+10
2.097379e+10
2.097362e+10
2.097346e+10
2.097333e+10
2.097321e+10
2.097311e+10
2.097303e+10
2.097297e+10
2.097293e+10
2.097292e+10
1.966874e+10
1.966872e+10
1.966868e+10
1.966863e+10
1.966855e+10
1.966846e+10
1.966835e+10
1.966822e+10
1.966807e+10
1.966791e+10
1.966773e+10
1.966753e+10
1.966732e+10
1.966709e+10
1.966685e+10
1.966659e+10
1.966632e+10
1.966604e+10
1.966574e+10
1.966544e+10
1.966512e+10
1.966479e+10
1.966445e+10
1.966411e+10
1.966375e+10
1.966339e+10
1.966303e+10
1.966266e+10
1.966228e+10
1.966190e+10
1.966152e+10
1.966114e+10
1.966076e+10
1.966038e+10
1.966000e+10
1.965962e+10
1.965924e+10
1.965887e+10
1.965851e+10
1.965814e+10
1.965779e+10
1.965745e+10
1.965711e+10
1.965678e+10
1.965646e+10
1.965615e+10
1.965586e+10
1.965558e+10
1.965531e+10
1.965505e+10
1.965481e+10
1.965458e+10
1.965437e+10
1.965417e+10
1.965399e+10
1.965382e+10
1.965368e+10
1.965355e+10
1.965344e+10
1.965335e+10
1.965327e+10
1.965321e+10
1.965318e+10
1.965316e+10
1.834627e+10
1.834625e+10
1.834621e+10
1.834616e+10
1.834609e+10
1.834600e+10
1.834590e+10
1.834578e+10
1.834564e+10
1.834549e+10
1.834532e+10
1.834513e+10
1.834493e+10
1.834472e+10
1.834449e+10
1.834424e+10
1.834399e+10
1.834372e+10
1.834344e+10
1.834316e+10
1.834286e+10
1.834255e+10
1.834223e+10
1.834190e+10
1.834157e+10
1.834123e+10
1.834089e+10
1.834054e+10
1.834018e+10
1.833983e+10
1.833947e+10
1.833911e+10
1.833875e+10
1.833839e+10
1.833803e+10
1.833767e+10
1.833732e+10
1.833697e+10
1.833663e+10
1.833629e+10
1.833595e+10
1.833563e+10
1.833531e+10
1.833500e+10
1.833470e+10
1.833441e+10
1.833413e+10
1.833387e+10
1.833361e+10
1.833337e+10
1.833314e+10
1.833293e+10
1.833273e+10
1.833254e+10
1.833237e+10
1.833222e+10
1.833208e+10
1.833196e+10
1.833185e+10
1.833177e+10
1.833170e+10
1.833164e+10
1.833161e+10
1.833159e+10
1.702194e+10
1.702193e+10
1.702189e+10
1.702184e+10
1.702178e+10
1.702170e+10
1.702160e+10
1.702149e+10
1.702136e+10
1.702121e+10
1.702105e+10
1.702088e+10
1.702069e+10
1.702049e+10
1.702028e+10
1.702005e+10
1.701981e+10
1.701956e+10
1.701930e+10
1.701903e+10
1.701875e+10
1.701846e+10
1.701816e+10
1.701786e+10
1.701755e+10
1.701723e+10
1.701691e+10
1.701658e+10
1.701625e+10
1.701592e+10
1.701558e+10
1.701524e+10
1.701491e+10
1.701457e+10
1.701423e+10
1.701390e+10
1.701357e+10
1.701324e+10
1.701292e+10
1.701260e+10
1.701229e+10
1.701199e+10
1.701169e+10
1.701140e+10
1.701112e+10
1.701085e+10
1.701059e+10
1.701034e+10
1.701010e+10
1.700987e+10
1.700966e+10
1.700946e+10
1.700927e+10
1.700910e+10
1.700894e+10
1.700879e+10
1.700867e+10
1.700855e+10
1.700845e+10
1.700837e+10
1.700831e+10
1.700826e+10
1.700822e+10
1.700821e+10
1.569577e+10
1.569576e+10
1.569573e+10
1.569568e+10
1.569562e+10
1.569554e+10
1.569545e+10
1.569535e+10
1.569523e+10
1.569509e+10
1.569495e+10
1.569479e+10
1.569461e+10
1.569442e+10
1.569423e+10
1.569402e+10
1.569379e+10
1.569356e+10
1.569332e+10
1.569307e+10
1.569281e+10
1.569254e+10
1.569226e+10
1.569198e+10
1.569169e+10
1.569139e+10
1.569109e+10
1.569079e+10
1.569048e+10
1.569017e+10
1.568986e+10
1.568955e+10
1.568924e+10
1.568892e+10
1.568861e+10
1.568830e+10
1.568799e+10
1.568769e+10
1.568739e+10
1.568709e+10
1.568681e+10
1.568652e+10
1.568625e+10
1.568598e+10
1.568572e+10
1.568546e+10
1.568522e+10
1.568499e+10
1.568477e+10
1.568456e+10
1.568436e+10
1.568417e+10
1.568400e+10
1.568384e+10
1.568369e+10
1.568356e+10
1.568344e+10
1.568333e+10
1.568324e+10
1.568316e+10
1.568310e+10
1.568306e+10
1.568303e+10
1.568301e+10
1.436776e+10
1.436774e+10
1.436771e+10
1.436767e+10
1.436762e+10
1.436755e+10
1.436746e+10
1.436736e+10
1.436725e+10
1.436713e+10
1.436699e+10
1.436685e+10
1.436669e+10
1.436651e+10
1.436633e+10
1.436614e+10
1.436593e+10
1.436572e+10
1.436550e+10
1.436526e+10
1.436502e+10
1.436478e+10
1.436452e+10
1.436426e+10
1.436399e+10
1.436372e+10
1.436345e+10
1.436317e+10
1.436288e+10
1.436260e+10
1.436231e+10
1.436202e+10
1.436173e+10
1.436144e+10
1.436116e+10
1.436087e+10
1.436059e+10
1.436031e+10
1.436003e+10
1.435976e+10
1.435949e+10
1.435923e+10
1.435898e+10
1.435873e+10
1.435849e+10
1.435826e+10
1.435804e+10
1.435782e+10
1.435762e+10
1.435742e+10
1.435724e+10
1.435707e+10
1.435691e+10
1.435676e+10
1.435662e+10
1.435650e+10
1.435639e+10
1.435629e+10
1.435621e+10
1.435614e+10
1.435608e+10
1.435604e+10
1.435601e+10
1.435600e+10
1.303789e+10
1.303788e+10
1.303786e+10
1.303782e+10
1.303777e+10
1.303770e+10
1.303763e+10
1.303754e+10
1.303744e+10
1.303732e+10
1.303720e+10
1.303706e+10
1.303692e+10
1.303676e+10
1.303659e+10
1.303642e+10
1.303623e+10
1.303604e+10
1.303583e+10
1.303562e+10
1.303540e+10
1.303518e+10
1.303494e+10
1.303471e+10
1.303446e+10
1.303421e+10
1.303396e+10
1.303371e+10
1.303345e+10
1.303319e+10
1.303293e+10
1.303266e+10
1.303240e+10
1.303214e+10
1.303188e+10
1.303161e+10
1.303136e+10
1.303110e+10
1.303085e+10
1.303060e+10
1.303036e+10
1.303012e+10
1.302989e+10
1.302966e+10
1.302944e+10
1.302923e+10
1.302903e+10
1.302883e+10
1.302865e+10
1.302847e+10
1.302830e+10
1.302815e+10
1.302800e+10
1.302786e+10
1.302774e+10
1.302763e+10
1.302753e+10
1.302744e+10
1.302736e+10
1.302730e+10
1.302725e+10
1.302721e+10
1.302718e+10
1.302717e+10
1.170619e+10
1.170618e+10
1.170615e+10
1.170612e+10
1.170607e+10
1.170602e+10
1.170595e+10
1.170587e+10
1.170578e+10
1.170567e+10
1.170556e+10
1.170544e+10
1.170531e+10
1.170517e+10
1.170502e+10
1.170486e+10
1.170469e+10
1.170451e+10
1.170433e+10
1.170414e+10
1.170394e+10
1.170374e+10
1.170353e+10
1.170331e+10
1.170310e+10
1.170287e+10
1.170264e+10
1.170241e+10
1.170218e+10
1.170195e+10
1.170171e+10
1.170147e+10
1.170124e+10
1.170100e+10
1.170076e+10
1.170053e+10
1.170030e+10
1.170007e+10
1.169984e+10
1.169961e+10
1.169940e+10
1.169918e+10
1.169897e+10
1.169877e+10
1.169857e+10
1.169838e+10
1.169820e+10
1.169802e+10
1.169785e+10
1.169769e+10
1.169754e+10
1.169740e+10
1.169727e+10
1.169715e+10
1.169704e+10
1.169693e+10
1.169684e+10
1.169676e+10
1.169669e+10
1.169664e+10