<VTKFile type='UnstructuredGrid' version='0.1' byte_order='BigEndian'> 
<UnstructuredGrid> 
<Piece NumberOfPoints=' 10251 ' NumberOfCells='  2500 '> 
<Points> 
<DataArray type='Float32' NumberOfComponents='3' Format='ascii'> 
0.000000e+00 0.000000e+00 0.000000e+00 
6.250000e+02 0.000000e+00 0.000000e+00 
1.250000e+03 0.000000e+00 0.000000e+00 
1.875000e+03 0.000000e+00 0.000000e+00 
2.500000e+03 0.000000e+00 0.000000e+00 
3.125000e+03 0.000000e+00 0.000000e+00 
3.750000e+03 0.000000e+00 0.000000e+00 
4.375000e+03 0.000000e+00 0.000000e+00 
5.000000e+03 0.000000e+00 0.000000e+00 
5.625000e+03 0.000000e+00 0.000000e+00 
6.250000e+03 0.000000e+00 0.000000e+00 
6.875000e+03 0.000000e+00 0.000000e+00 
7.500000e+03 0.000000e+00 0.000000e+00 
8.125000e+03 0.000000e+00 0.000000e+00 
8.750000e+03 0.000000e+00 0.000000e+00 
9.375000e+03 0.000000e+00 0.000000e+00 
1.000000e+04 0.000000e+00 0.000000e+00 
1.062500e+04 0.000000e+00 0.000000e+00 
1.125000e+04 0.000000e+00 0.000000e+00 
1.187500e+04 0.000000e+00 0.000000e+00 
1.250000e+04 0.000000e+00 0.000000e+00 
1.312500e+04 0.000000e+00 0.000000e+00 
1.375000e+04 0.000000e+00 0.000000e+00 
1.437500e+04 0.000000e+00 0.000000e+00 
1.500000e+04 0.000000e+00 0.000000e+00 
1.562500e+04 0.000000e+00 0.000000e+00 
1.625000e+04 0.000000e+00 0.000000e+00 
1.687500e+04 0.000000e+00 0.000000e+00 
1.750000e+04 0.000000e+00 0.000000e+00 
1.812500e+04 0.000000e+00 0.000000e+00 
1.875000e+04 0.000000e+00 0.000000e+00 
1.937500e+04 0.000000e+00 0.000000e+00 
2.000000e+04 0.000000e+00 0.000000e+00 
2.062500e+04 0.000000e+00 0.000000e+00 
2.125000e+04 0.000000e+00 0.000000e+00 
2.187500e+04 0.000000e+00 0.000000e+00 
2.250000e+04 0.000000e+00 0.000000e+00 
2.312500e+04 0.000000e+00 0.000000e+00 
2.375000e+04 0.000000e+00 0.000000e+00 
2.437500e+04 0.000000e+00 0.000000e+00 
2.500000e+04 0.000000e+00 0.000000e+00 
2.562500e+04 0.000000e+00 0.000000e+00 
2.625000e+04 0.000000e+00 0.000000e+00 
2.687500e+04 0.000000e+00 0.000000e+00 
2.750000e+04 0.000000e+00 0.000000e+00 
2.812500e+04 0.000000e+00 0.000000e+00 
2.875000e+04 0.000000e+00 0.000000e+00 
2.937500e+04 0.000000e+00 0.000000e+00 
3.000000e+04 0.000000e+00 0.000000e+00 
3.062500e+04 0.000000e+00 0.000000e+00 
3.125000e+04 0.000000e+00 0.000000e+00 
3.187500e+04 0.000000e+00 0.000000e+00 
3.250000e+04 0.000000e+00 0.000000e+00 
3.312500e+04 0.000000e+00 0.000000e+00 
3.375000e+04 0.000000e+00 0.000000e+00 
3.437500e+04 0.000000e+00 0.000000e+00 
3.500000e+04 0.000000e+00 0.000000e+00 
3.562500e+04 0.000000e+00 0.000000e+00 
3.625000e+04 0.000000e+00 0.000000e+00 
3.687500e+04 0.000000e+00 0.000000e+00 
3.750000e+04 0.000000e+00 0.000000e+00 
3.812500e+04 0.000000e+00 0.000000e+00 
3.875000e+04 0.000000e+00 0.000000e+00 
3.937500e+04 0.000000e+00 0.000000e+00 
4.000000e+04 0.000000e+00 0.000000e+00 
4.062500e+04 0.000000e+00 0.000000e+00 
4.125000e+04 0.000000e+00 0.000000e+00 
4.187500e+04 0.000000e+00 0.000000e+00 
4.250000e+04 0.000000e+00 0.000000e+00 
4.312500e+04 0.000000e+00 0.000000e+00 
4.375000e+04 0.000000e+00 0.000000e+00 
4.437500e+04 0.000000e+00 0.000000e+00 
4.500000e+04 0.000000e+00 0.000000e+00 
4.562500e+04 0.000000e+00 0.000000e+00 
4.625000e+04 0.000000e+00 0.000000e+00 
4.687500e+04 0.000000e+00 0.000000e+00 
4.750000e+04 0.000000e+00 0.000000e+00 
4.812500e+04 0.000000e+00 0.000000e+00 
4.875000e+04 0.000000e+00 0.000000e+00 
4.937500e+04 0.000000e+00 0.000000e+00 
5.000000e+04 0.000000e+00 0.000000e+00 
5.062500e+04 0.000000e+00 0.000000e+00 
5.125000e+04 0.000000e+00 0.000000e+00 
5.187500e+04 0.000000e+00 0.000000e+00 
5.250000e+04 0.000000e+00 0.000000e+00 
5.312500e+04 0.000000e+00 0.000000e+00 
5.375000e+04 0.000000e+00 0.000000e+00 
5.437500e+04 0.000000e+00 0.000000e+00 
5.500000e+04 0.000000e+00 0.000000e+00 
5.562500e+04 0.000000e+00 0.000000e+00 
5.625000e+04 0.000000e+00 0.000000e+00 
5.687500e+04 0.000000e+00 0.000000e+00 
5.750000e+04 0.000000e+00 0.000000e+00 
5.812500e+04 0.000000e+00 0.000000e+00 
5.875000e+04 0.000000e+00 0.000000e+00 
5.937500e+04 0.000000e+00 0.000000e+00 
6.000000e+04 0.000000e+00 0.000000e+00 
6.062500e+04 0.000000e+00 0.000000e+00 
6.125000e+04 0.000000e+00 0.000000e+00 
6.187500e+04 0.000000e+00 0.000000e+00 
6.250000e+04 0.000000e+00 0.000000e+00 
6.312500e+04 0.000000e+00 0.000000e+00 
6.375000e+04 0.000000e+00 0.000000e+00 
6.437500e+04 0.000000e+00 0.000000e+00 
6.500000e+04 0.000000e+00 0.000000e+00 
6.562500e+04 0.000000e+00 0.000000e+00 
6.625000e+04 0.000000e+00 0.000000e+00 
6.687500e+04 0.000000e+00 0.000000e+00 
6.750000e+04 0.000000e+00 0.000000e+00 
6.812500e+04 0.000000e+00 0.000000e+00 
6.875000e+04 0.000000e+00 0.000000e+00 
6.937500e+04 0.000000e+00 0.000000e+00 
7.000000e+04 0.000000e+00 0.000000e+00 
7.062500e+04 0.000000e+00 0.000000e+00 
7.125000e+04 0.000000e+00 0.000000e+00 
7.187500e+04 0.000000e+00 0.000000e+00 
7.250000e+04 0.000000e+00 0.000000e+00 
7.312500e+04 0.000000e+00 0.000000e+00 
7.375000e+04 0.000000e+00 0.000000e+00 
7.437500e+04 0.000000e+00 0.000000e+00 
7.500000e+04 0.000000e+00 0.000000e+00 
7.562500e+04 0.000000e+00 0.000000e+00 
7.625000e+04 0.000000e+00 0.000000e+00 
7.687500e+04 0.000000e+00 0.000000e+00 
7.750000e+04 0.000000e+00 0.000000e+00 
7.812500e+04 0.000000e+00 0.000000e+00 
7.875000e+04 0.000000e+00 0.000000e+00 
7.937500e+04 0.000000e+00 0.000000e+00 
8.000000e+04 0.000000e+00 0.000000e+00 
8.062500e+04 0.000000e+00 0.000000e+00 
8.125000e+04 0.000000e+00 0.000000e+00 
8.187500e+04 0.000000e+00 0.000000e+00 
8.250000e+04 0.000000e+00 0.000000e+00 
8.312500e+04 0.000000e+00 0.000000e+00 
8.375000e+04 0.000000e+00 0.000000e+00 
8.437500e+04 0.000000e+00 0.000000e+00 
8.500000e+04 0.000000e+00 0.000000e+00 
8.562500e+04 0.000000e+00 0.000000e+00 
8.625000e+04 0.000000e+00 0.000000e+00 
8.687500e+04 0.000000e+00 0.000000e+00 
8.750000e+04 0.000000e+00 0.000000e+00 
8.812500e+04 0.000000e+00 0.000000e+00 
8.875000e+04 0.000000e+00 0.000000e+00 
8.937500e+04 0.000000e+00 0.000000e+00 
9.000000e+04 0.000000e+00 0.000000e+00 
9.062500e+04 0.000000e+00 0.000000e+00 
9.125000e+04 0.000000e+00 0.000000e+00 
9.187500e+04 0.000000e+00 0.000000e+00 
9.250000e+04 0.000000e+00 0.000000e+00 
9.312500e+04 0.000000e+00 0.000000e+00 
9.375000e+04 0.000000e+00 0.000000e+00 
9.437500e+04 0.000000e+00 0.000000e+00 
9.500000e+04 0.000000e+00 0.000000e+00 
9.562500e+04 0.000000e+00 0.000000e+00 
9.625000e+04 0.000000e+00 0.000000e+00 
9.687500e+04 0.000000e+00 0.000000e+00 
9.750000e+04 0.000000e+00 0.000000e+00 
9.812500e+04 0.000000e+00 0.000000e+00 
9.875000e+04 0.000000e+00 0.000000e+00 
9.937500e+04 0.000000e+00 0.000000e+00 
1.000000e+05 0.000000e+00 0.000000e+00 
1.006250e+05 0.000000e+00 0.000000e+00 
1.012500e+05 0.000000e+00 0.000000e+00 
1.018750e+05 0.000000e+00 0.000000e+00 
1.025000e+05 0.000000e+00 0.000000e+00 
1.031250e+05 0.000000e+00 0.000000e+00 
1.037500e+05 0.000000e+00 0.000000e+00 
1.043750e+05 0.000000e+00 0.000000e+00 
1.050000e+05 0.000000e+00 0.000000e+00 
1.056250e+05 0.000000e+00 0.000000e+00 
1.062500e+05 0.000000e+00 0.000000e+00 
1.068750e+05 0.000000e+00 0.000000e+00 
1.075000e+05 0.000000e+00 0.000000e+00 
1.081250e+05 0.000000e+00 0.000000e+00 
1.087500e+05 0.000000e+00 0.000000e+00 
1.093750e+05 0.000000e+00 0.000000e+00 
1.100000e+05 0.000000e+00 0.000000e+00 
1.106250e+05 0.000000e+00 0.000000e+00 
1.112500e+05 0.000000e+00 0.000000e+00 
1.118750e+05 0.000000e+00 0.000000e+00 
1.125000e+05 0.000000e+00 0.000000e+00 
1.131250e+05 0.000000e+00 0.000000e+00 
1.137500e+05 0.000000e+00 0.000000e+00 
1.143750e+05 0.000000e+00 0.000000e+00 
1.150000e+05 0.000000e+00 0.000000e+00 
1.156250e+05 0.000000e+00 0.000000e+00 
1.162500e+05 0.000000e+00 0.000000e+00 
1.168750e+05 0.000000e+00 0.000000e+00 
1.175000e+05 0.000000e+00 0.000000e+00 
1.181250e+05 0.000000e+00 0.000000e+00 
1.187500e+05 0.000000e+00 0.000000e+00 
1.193750e+05 0.000000e+00 0.000000e+00 
1.200000e+05 0.000000e+00 0.000000e+00 
1.206250e+05 0.000000e+00 0.000000e+00 
1.212500e+05 0.000000e+00 0.000000e+00 
1.218750e+05 0.000000e+00 0.000000e+00 
1.225000e+05 0.000000e+00 0.000000e+00 
1.231250e+05 0.000000e+00 0.000000e+00 
1.237500e+05 0.000000e+00 0.000000e+00 
1.243750e+05 0.000000e+00 0.000000e+00 
1.250000e+05 0.000000e+00 0.000000e+00 
0.000000e+00 5.000000e+01 0.000000e+00 
6.250000e+02 5.000000e+01 0.000000e+00 
1.250000e+03 5.000000e+01 0.000000e+00 
1.875000e+03 5.000000e+01 0.000000e+00 
2.500000e+03 5.000000e+01 0.000000e+00 
3.125000e+03 5.000000e+01 0.000000e+00 
3.750000e+03 5.000000e+01 0.000000e+00 
4.375000e+03 5.000000e+01 0.000000e+00 
5.000000e+03 5.000000e+01 0.000000e+00 
5.625000e+03 5.000000e+01 0.000000e+00 
6.250000e+03 5.000000e+01 0.000000e+00 
6.875000e+03 5.000000e+01 0.000000e+00 
7.500000e+03 5.000000e+01 0.000000e+00 
8.125000e+03 5.000000e+01 0.000000e+00 
8.750000e+03 5.000000e+01 0.000000e+00 
9.375000e+03 5.000000e+01 0.000000e+00 
1.000000e+04 5.000000e+01 0.000000e+00 
1.062500e+04 5.000000e+01 0.000000e+00 
1.125000e+04 5.000000e+01 0.000000e+00 
1.187500e+04 5.000000e+01 0.000000e+00 
1.250000e+04 5.000000e+01 0.000000e+00 
1.312500e+04 5.000000e+01 0.000000e+00 
1.375000e+04 5.000000e+01 0.000000e+00 
1.437500e+04 5.000000e+01 0.000000e+00 
1.500000e+04 5.000000e+01 0.000000e+00 
1.562500e+04 5.000000e+01 0.000000e+00 
1.625000e+04 5.000000e+01 0.000000e+00 
1.687500e+04 5.000000e+01 0.000000e+00 
1.750000e+04 5.000000e+01 0.000000e+00 
1.812500e+04 5.000000e+01 0.000000e+00 
1.875000e+04 5.000000e+01 0.000000e+00 
1.937500e+04 5.000000e+01 0.000000e+00 
2.000000e+04 5.000000e+01 0.000000e+00 
2.062500e+04 5.000000e+01 0.000000e+00 
2.125000e+04 5.000000e+01 0.000000e+00 
2.187500e+04 5.000000e+01 0.000000e+00 
2.250000e+04 5.000000e+01 0.000000e+00 
2.312500e+04 5.000000e+01 0.000000e+00 
2.375000e+04 5.000000e+01 0.000000e+00 
2.437500e+04 5.000000e+01 0.000000e+00 
2.500000e+04 5.000000e+01 0.000000e+00 
2.562500e+04 5.000000e+01 0.000000e+00 
2.625000e+04 5.000000e+01 0.000000e+00 
[...]
<CellData Scalars='scalars'>
<DataArray type='Float32' Name='div.v' Format='ascii'> 
-6.353192e-15
1.109730e-13
1.359676e-13
1.136919e-13
8.648498e-14
7.017061e-14
6.049946e-14
5.329541e-14
4.683197e-14
4.092022e-14
3.576621e-14
3.142799e-14
2.780251e-14
2.473672e-14
2.210270e-14
1.981489e-14
1.781605e-14
1.606569e-14
1.452860e-14
1.317499e-14
1.197865e-14
1.091824e-14
9.974452e-15
9.132769e-15
8.380006e-15
7.705168e-15
7.099008e-15
6.552816e-15
6.061026e-15
5.615326e-15
5.212056e-15
4.846728e-15
4.514795e-15
4.212694e-15
3.937900e-15
3.687184e-15
3.458700e-15
3.249832e-15
3.059408e-15
2.884942e-15
2.725836e-15
2.580305e-15
2.447392e-15
2.326047e-15
2.215379e-15
2.114739e-15
2.022972e-15
1.940130e-15
1.864536e-15
1.797272e-15
1.735942e-15
1.682375e-15
1.634524e-15
1.592663e-15
1.556611e-15
1.525671e-15
1.500424e-15
1.479853e-15
1.465116e-15
1.454251e-15
1.448717e-15
1.448119e-15
1.452336e-15
1.461102e-15
1.474939e-15
1.493547e-15
1.517277e-15
1.546244e-15
1.580511e-15
1.620392e-15
1.665947e-15
1.717220e-15
1.775435e-15
1.839659e-15
1.912459e-15
1.993670e-15
2.084640e-15
2.182004e-15
2.283375e-15
2.382468e-15
2.482407e-15
2.603792e-15
2.793732e-15
3.105101e-15
3.529274e-15
3.885013e-15
3.747465e-15
2.651354e-15
6.150958e-16
-5.899215e-16
2.765633e-15
1.754488e-14
3.711067e-14
4.333321e-14
-2.563867e-14
1.291602e-14
-5.514219e-13
4.686372e-13
-3.162401e-12
1.587349e-11
-9.260790e-15
-7.305356e-14
-4.652178e-14
-3.765464e-14
-3.020065e-14
-2.566366e-14
-2.113399e-14
-1.709672e-14
-1.393410e-14
-1.167611e-14
-1.005600e-14
-8.814914e-15
-7.795421e-15
-6.927014e-15
-6.180432e-15
-5.538004e-15
-4.983998e-15
-4.502871e-15
-4.082012e-15
-3.711232e-15
-3.382983e-15
-3.091054e-15
-2.830999e-15
-2.598374e-15
-2.389878e-15
-2.202488e-15
-2.033669e-15
-1.881325e-15
-1.743306e-15
-1.618497e-15
-1.505111e-15
-1.402024e-15
-1.308118e-15
-1.222595e-15
-1.144515e-15
-1.073233e-15
-1.008025e-15
-9.484656e-16
-8.938685e-16
-8.440459e-16
-7.983534e-16
-7.565399e-16
-7.183374e-16
-6.833975e-16
-6.515194e-16
-6.223530e-16
-5.959706e-16
-5.718775e-16
-5.502453e-16
-5.305760e-16
-5.131729e-16
-4.973536e-16
-4.834852e-16
-4.713689e-16
-4.608622e-16
-4.520409e-16
-4.446536e-16
-4.388415e-16
-4.343513e-16
-4.312524e-16
-4.298095e-16
-4.297036e-16
-4.308822e-16
-4.335538e-16
-4.376078e-16
-4.431209e-16
-4.501270e-16
-4.585889e-16
-4.686879e-16
-4.803768e-16
-4.938342e-16
-5.089128e-16
-5.259765e-16
-5.448252e-16
-5.651956e-16
-5.877744e-16
-6.132182e-16
-6.435645e-16
-6.795201e-16
-7.203230e-16
-7.588422e-16
-7.823642e-16
-7.794850e-16
-7.621868e-16
-7.943995e-16
-1.000146e-15
-1.491220e-15
-2.163951e-15
-2.446325e-15
-1.179400e-15
2.734196e-15
8.951098e-15
9.591576e-15
-9.200278e-15
-4.690842e-14
-5.813939e-14
-1.369136e-13
2.310724e-13
-5.058431e-13
5.843643e-12
1.416995e-13
1.205416e-13
1.215301e-13
9.925135e-14
7.987944e-14
6.700084e-14
5.755908e-14
4.995864e-14
4.348168e-14
3.797834e-14
3.334709e-14
2.945856e-14
2.616922e-14
2.335311e-14
2.091855e-14
1.879786e-14
1.694339e-14
1.531476e-14
1.388081e-14
1.261341e-14
1.149004e-14
1.049064e-14
9.599681e-15
8.802836e-15
8.088776e-15
7.447147e-15
6.869714e-15
6.348807e-15
5.877802e-15
5.451537e-15
5.065265e-15
4.714130e-15
4.394890e-15
4.104195e-15
3.839180e-15
3.597431e-15
3.376556e-15
3.174810e-15
2.990305e-15
2.821643e-15
2.667314e-15
2.526291e-15
2.397265e-15
2.279518e-15
2.171974e-15
2.074087e-15
1.984911e-15
1.904163e-15
1.831085e-15
1.765200e-15
1.706137e-15
1.653535e-15
1.606798e-15
1.566218e-15
1.530882e-15
1.501141e-15
1.476402e-15
1.456742e-15
1.441932e-15
1.431998e-15
1.426645e-15
1.426013e-15
1.430142e-15
1.438991e-15
1.452564e-15
1.471025e-15
1.494383e-15
1.522900e-15
1.556600e-15
1.595817e-15
1.640625e-15
1.691405e-15
1.748055e-15
1.812041e-15
1.882394e-15
1.961395e-15
2.048397e-15
2.144497e-15
2.247210e-15
2.355950e-15
2.469278e-15
2.594126e-15
2.746747e-15
2.953275e-15
3.225033e-15
3.518027e-15
3.686342e-15
3.509735e-15
2.884758e-15
2.211723e-15
2.954434e-15
7.300383e-15
1.550730e-14
1.864235e-14
1.650875e-14
-2.547311e-14
-6.819927e-14
-3.503049e-13
-2.766929e-13
5.172862e-13
-2.686668e-13
-2.949830e-13
-2.427250e-13
-2.073723e-13
-1.828913e-13
-1.630877e-13
-1.447784e-13
-1.273454e-13
-1.116207e-13
-9.807870e-14
-8.664137e-14
-7.694224e-14
-6.861353e-14
-6.138515e-14
-5.507513e-14
-4.955127e-14
-4.470553e-14
-4.044368e-14
-3.668361e-14
-3.335525e-14
-3.040011e-14
-2.776898e-14
-2.542008e-14
-2.331827e-14
-2.143332e-14
-1.973907e-14
-1.821325e-14
-1.683591e-14
-1.559137e-14
-1.446343e-14
-1.344059e-14
-1.251146e-14
-1.166610e-14
-1.089619e-14
-1.019416e-14
-9.553417e-15
-8.968315e-15
-8.433379e-15
-7.944391e-15
-7.496915e-15
-7.087841e-15
-6.713684e-15
-6.371484e-15
-6.058952e-15
-5.773759e-15
-5.513874e-15
-5.277485e-15
-5.063084e-15
-4.868979e-15
-4.694000e-15
-4.537052e-15
-4.397412e-15
-4.273841e-15
-4.165641e-15
-4.072104e-15
-3.992878e-15
-3.927149e-15
-3.874791e-15
-3.835632e-15
-3.808764e-15
-3.794699e-15
-3.793237e-15
-3.804021e-15
-3.827439e-15
-3.863365e-15
-3.912309e-15
-3.974241e-15
-4.049712e-15
-4.139122e-15
-4.242981e-15
-4.361964e-15
-4.496594e-15
-4.647562e-15
-4.815512e-15
-5.001961e-15
-5.208961e-15
-5.439393e-15
-5.695657e-15
-5.978229e-15
-6.280410e-15
-6.589777e-15
-6.896682e-15
-7.217344e-15
-7.625654e-15
-8.258501e-15
-9.237378e-15
-1.044891e-14
-1.125758e-14
-1.042530e-14
-6.857236e-15
-1.402903e-15
-5.118616e-16
-1.611360e-14
-6.107745e-14
-9.453524e-14
-1.186468e-13
8.885991e-14
1.550292e-13
1.648165e-12
4.059534e-13
2.307467e-13
2.248433e-13
2.105715e-13
1.814994e-13
1.550839e-13
1.356607e-13
1.197006e-13
1.055960e-13
9.293149e-14
8.183348e-14
7.229998e-14
6.416050e-14
5.717617e-14
5.113313e-14
4.586835e-14
4.126143e-14
3.721836e-14
3.366086e-14
3.052195e-14
2.774426e-14
2.527882e-14
2.308434e-14
2.112604e-14
1.937423e-14
1.780355e-14
1.639223e-14
1.512136e-14
1.397503e-14
1.293846e-14
1.200045e-14
1.114952e-14
1.037662e-14
9.673752e-15
9.033744e-15
8.450241e-15
7.917858e-15
7.431680e-15
6.987521e-15
6.581280e-15
6.209936e-15
5.870242e-15
5.559619e-15
5.275680e-15
5.016385e-15
4.779726e-15
4.564067e-15
4.367997e-15
4.190017e-15
4.029124e-15
3.883987e-15
3.754177e-15
3.637974e-15
3.535579e-15
3.445829e-15
3.368362e-15
3.302595e-15
3.248145e-15
3.204838e-15
3.172009e-15
3.150133e-15
3.138348e-15
3.137124e-15
3.145897e-15
3.165420e-15
3.195115e-15
3.235741e-15
3.286964e-15
3.349574e-15
3.423611e-15
3.509782e-15
3.608270e-15
3.719779e-15
3.844797e-15
3.984333e-15
4.139437e-15
4.311919e-15
4.503307e-15
4.714533e-15
4.943427e-15
5.185759e-15
5.437666e-15
5.705201e-15
6.017949e-15
6.432982e-15
7.006163e-15
7.704656e-15
8.285658e-15
8.248415e-15
7.106356e-15
5.132446e-15
4.783055e-15
1.077171e-14
2.775188e-14
4.386119e-14
5.596403e-14
-1.418280e-14
-6.591491e-14
-6.793269e-13
6.931230e-14
-1.535569e-12
-7.056150e-14
-5.685312e-14
-4.346755e-14
-3.421053e-14
-3.247871e-14
-2.959657e-14
-2.640174e-14
-2.300417e-14
-1.996091e-14
-1.740702e-14
-1.530858e-14
-1.355660e-14
-1.206223e-14
-1.076932e-14
-9.644608e-15
-8.664489e-15
-7.808979e-15
-7.059798e-15
-6.400953e-15
-5.819073e-15
-5.303231e-15
-4.844489e-15
-4.435309e-15
-4.069397e-15
-3.741361e-15
-3.446579e-15
-3.181191e-15
-2.941484e-15
-2.725039e-15
-2.528695e-15
-2.350612e-15
-2.188836e-15
-2.041648e-15
-1.907412e-15
-1.785178e-15
-1.673385e-15
-1.571419e-15
-1.477998e-15
-1.392773e-15
-1.314621e-15
-1.243186e-15
-1.177786e-15
-1.118044e-15
-1.063405e-15
-1.013579e-15
-9.681543e-16
-9.268187e-16
-8.893839e-16
-8.552905e-16
-8.248534e-16
-7.971763e-16
-7.729090e-16
-7.512026e-16
-7.323327e-16
-7.159761e-16
-7.020300e-16
-6.905916e-16
-6.814044e-16
-6.746247e-16
-6.698334e-16
-6.674469e-16
-6.671663e-16
-6.691431e-16
-6.731528e-16
-6.795545e-16
-6.880467e-16
-6.989865e-16
-7.121242e-16
-7.279111e-16
-7.460374e-16
-7.669788e-16
-7.905847e-16
-8.170574e-16
-8.463725e-16
-8.788395e-16
-9.148837e-16
-9.552614e-16
-1.000790e-15
-1.052080e-15
-1.107106e-15
-1.161580e-15
-1.209493e-15
-1.250351e-15
-1.301473e-15
-1.407920e-15
-1.630597e-15
-1.981209e-15
-2.311576e-15
-2.208161e-15
-1.131189e-15
1.199134e-15
3.128742e-15
6.150800e-16
-1.539277e-14
-2.376526e-14
-5.910089e-14
4.091442e-14
-2.397830e-13
1.102348e-12
-1.445227e-12
-8.669829e-15
1.893975e-14
1.676324e-14
1.712626e-14
1.148279e-14
8.937315e-15
7.354074e-15
6.393659e-15
5.549522e-15
4.788907e-15
4.129821e-15
3.589616e-15
3.154135e-15
2.798553e-15
2.500337e-15
2.244172e-15
2.020779e-15
1.824713e-15
1.652013e-15
1.499613e-15
1.364750e-15
1.244955e-15
1.138235e-15
1.043027e-15
9.576613e-16
8.811185e-16
8.121748e-16
7.500174e-16
6.939154e-16
6.430765e-16
5.970817e-16
5.552802e-16
5.172563e-16
4.827241e-16
4.511289e-16
4.224822e-16
3.961553e-16
3.722564e-16
3.503537e-16
3.303290e-16
3.120329e-16
2.953675e-16
2.800685e-16
2.661640e-16
2.534053e-16
2.417984e-16
2.312621e-16
2.216664e-16
2.131153e-16
2.052293e-16
1.983862e-16
1.920576e-16
1.866374e-16
1.817989e-16
1.776308e-16
1.741366e-16
1.712105e-16
1.689097e-16
1.670712e-16
1.659303e-16
1.653800e-16
1.652392e-16
1.657374e-16
1.667966e-16
1.683735e-16
1.706112e-16
1.732882e-16
1.767019e-16
1.806265e-16
1.852688e-16
1.905166e-16
1.964860e-16
2.031658e-16
2.107788e-16
2.192634e-16
2.287889e-16
2.390542e-16
2.498637e-16
2.606492e-16
2.714835e-16
2.846415e-16
3.042162e-16
3.352727e-16
3.772553e-16
4.137843e-16
4.057259e-16
3.084446e-16
1.248842e-16
9.913460e-18
3.037010e-16
1.570350e-15
3.582450e-15
4.843471e-15
-1.944113e-15
-2.795145e-15
-3.832066e-14
2.343945e-14
-3.277728e-13
8.584804e-13
-1.798905e-12
-2.920616e-14
7.538102e-15
2.767912e-15
5.625208e-15
1.833341e-15
7.982251e-16
3.994592e-16
4.694279e-16
4.974337e-16
4.483008e-16
3.549163e-16
2.674124e-16
2.057734e-16
1.696366e-16
1.510991e-16
1.421157e-16
1.370755e-16
1.330138e-16
1.284548e-16
1.229745e-16
1.166737e-16
1.094983e-16
1.019169e-16
9.439862e-17
8.678811e-17
7.953188e-17
7.264612e-17
6.626481e-17
6.051284e-17
5.513066e-17
5.033391e-17
4.591271e-17
4.195512e-17
3.847288e-17
3.521669e-17
3.242724e-17
2.981384e-17
2.755173e-17
2.550057e-17
2.359284e-17
2.199062e-17
2.050757e-17
1.913481e-17
1.796643e-17
1.680589e-17
1.583859e-17
1.498295e-17
1.417480e-17
1.349973e-17
1.279879e-17
1.231231e-17
1.172060e-17
1.136672e-17
1.093364e-17
1.062910e-17
1.037290e-17
1.013013e-17
9.957764e-18
9.686071e-18
9.669603e-18
9.703121e-18
9.618244e-18
9.719396e-18
9.757599e-18
9.888607e-18
1.001334e-17
1.025782e-17
1.048661e-17
1.081007e-17
1.111373e-17
1.150041e-17
1.196357e-17
1.246912e-17
1.314756e-17
1.391393e-17
1.487443e-17
1.563765e-17
1.597166e-17
1.560940e-17
1.509304e-17
1.616974e-17
2.227438e-17
3.594444e-17
5.321417e-17
5.719786e-17
1.686385e-17
-9.041589e-17
-2.327783e-16
-2.504143e-16
1.236937e-16
1.229526e-15
2.564067e-15
2.616877e-15
-4.288330e-15
-4.627961e-15
-3.257687e-14
2.934670e-14
-2.743296e-13
8.554271e-13
-1.804845e-12
-3.676681e-14
5.877362e-15
-3.344987e-16
2.834375e-15
-4.140999e-16
-1.172675e-15
-1.407521e-15
-1.218412e-15
-1.073361e-15
-1.001001e-15
-9.797824e-16
-9.708932e-16
-9.580984e-16
-9.373779e-16
-9.089387e-16
-8.730763e-16
-8.304727e-16
-7.820384e-16
-7.296807e-16
-6.755093e-16
-6.215282e-16
-5.694303e-16
-5.203410e-16
-4.747642e-16
-4.332349e-16
-3.953903e-16
-3.613479e-16
-3.307950e-16
-3.033291e-16
-2.787476e-16
-2.567206e-16
-2.370790e-16
-2.194479e-16
-2.035635e-16
-1.893827e-16
-1.765160e-16
-1.649920e-16
-1.545575e-16
-1.451444e-16
-1.366219e-16
-1.288098e-16
-1.218059e-16
-1.154356e-16
-1.096389e-16
-1.044270e-16
-9.964935e-17
-9.535887e-17
-9.147292e-17
-8.791548e-17
-8.478353e-17
-8.192756e-17
-7.949782e-17
-7.723819e-17
-7.535644e-17
-7.365240e-17
-7.219156e-17
-7.107105e-17
-7.013053e-17
-6.950201e-17
-6.896881e-17
-6.882814e-17
-6.861724e-17
-6.901232e-17
-6.922644e-17
-7.000420e-17
-7.074751e-17
-7.192839e-17
-7.322504e-17
-7.483175e-17
-7.668893e-17
-7.883583e-17
-8.124822e-17
-8.400643e-17
-8.694256e-17
-9.016660e-17
-9.376451e-17
-9.789928e-17
-1.028536e-16
-1.089059e-16
-1.155960e-16
-1.215596e-16
-1.244701e-16
-1.225512e-16
-1.190063e-16
-1.270759e-16
-1.700206e-16
-2.635372e-16
-3.813495e-16
-4.000153e-16
-1.233670e-16
7.018541e-16
1.642848e-15
1.549435e-15
-4.048528e-15
-3.390849e-15
-2.631223e-14
2.600379e-14
-2.402402e-13
7.611128e-13
-1.703663e-12
-5.738280e-15
3.170133e-14
1.994123e-14
1.943709e-14
1.437624e-14
1.196713e-14
1.030151e-14
9.210366e-15
8.260386e-15
7.409152e-15
6.649901e-15
5.988661e-15
5.413587e-15
4.907308e-15
4.454304e-15
4.044370e-15
3.671387e-15
3.332030e-15
3.023882e-15
2.745004e-15
2.493439e-15
2.267055e-15
2.063722e-15
1.881376e-15
1.717675e-15
1.571046e-15
1.439529e-15
1.321475e-15
1.215537e-15
1.120327e-15
1.034686e-15
9.574832e-16
8.878612e-16
8.251068e-16
7.682897e-16
7.169456e-16
6.703859e-16
6.281375e-16
5.897760e-16
5.549501e-16
5.233264e-16
4.945044e-16
4.682651e-16
4.444816e-16
4.228171e-16
4.031929e-16
3.853545e-16
3.692244e-16
3.547456e-16
3.416356e-16
3.299353e-16
3.194769e-16
3.103043e-16
3.022186e-16
2.953191e-16
2.894846e-16
2.845907e-16
2.807375e-16
2.777681e-16
2.758285e-16
2.747570e-16
2.747056e-16
2.755089e-16
2.771772e-16
2.798298e-16
2.834748e-16
2.880648e-16
2.935973e-16
3.001739e-16
3.079140e-16
3.165947e-16
3.266431e-16
3.378336e-16
3.505008e-16
3.644996e-16
3.800808e-16
3.971378e-16
4.156747e-16
4.357041e-16
4.576080e-16
4.823667e-16
5.117510e-16
5.472037e-16
5.874234e-16
6.246776e-16
6.448917e-16
6.381695e-16
6.185843e-16
6.616506e-16
8.840609e-16
1.469893e-15
2.127542e-15
2.200690e-15
-1.364436e-15
8.778882e-16
-1.717987e-14
2.551765e-14
-2.039630e-13
6.359313e-13
-1.546346e-12
-1.309407e-13
-6.887438e-14
-6.192656e-14
-4.955508e-14
-4.502721e-14
-4.032319e-14
-3.601961e-14
-3.196628e-14
-2.847437e-14
-2.552063e-14
-2.301672e-14
-2.085585e-14
-1.896253e-14
-1.728685e-14
-1.579489e-14
-1.446005e-14
-1.326032e-14
-1.217695e-14
-1.119469e-14
-1.030098e-14
-9.485807e-15
-8.740918e-15
-8.059562e-15
-7.436025e-15
-6.865412e-15
-6.343399e-15
-5.866227e-15
-5.430233e-15
-5.032261e-15
-4.669145e-15
-4.337936e-15
-4.035968e-15
-3.760684e-15
-3.509553e-15
-3.280641e-15
-3.071713e-15
-2.881070e-15
-2.707020e-15
-2.548102e-15
-2.402982e-15
-2.270387e-15
-2.149304e-15
-2.038851e-15
-1.937945e-15
-1.846028e-15
-1.762359e-15
-1.686382e-15
-1.617422e-15
-1.555071e-15
-1.499044e-15
-1.448809e-15
-1.404012e-15
-1.364426e-15
-1.329841e-15
-1.299939e-15
-1.274582e-15
-1.253628e-15
-1.236891e-15
-1.224356e-15
-1.215904e-15
-1.211451e-15
-1.210960e-15
-1.214499e-15
-1.222036e-15
-1.233734e-15
-1.249332e-15
-1.269255e-15
-1.293514e-15
-1.322210e-15
-1.355580e-15
-1.393781e-15
-1.437085e-15
-1.485681e-15
-1.539963e-15
-1.600103e-15
-1.666723e-15
-1.740368e-15
-1.821851e-15
-1.911645e-15
-2.009653e-15
-2.114902e-15
-2.226300e-15
-2.344749e-15
-2.477205e-15
-2.639649e-15
-2.851726e-15
-3.114458e-15
-3.377043e-15
-3.504340e-15
-3.342069e-15
-2.810200e-15
-2.562764e-15
-3.886812e-15
-9.814752e-15
-1.055233e-14
-2.719048e-14
1.505886e-14
-1.601627e-13
6.580241e-13
-1.355715e-12
1.184632e-13
1.306127e-13
1.011943e-13
8.635542e-14
7.276001e-14
6.316244e-14
5.547028e-14
4.911136e-14
4.365549e-14
3.897575e-14
3.496200e-14
3.151091e-14
2.852219e-14
2.591216e-14
2.361471e-14
2.157874e-14
1.976359e-14
1.813663e-14
1.667101e-14
1.534495e-14
1.414068e-14
1.304382e-14
1.204279e-14
1.112791e-14
1.029105e-14
9.525431e-15
8.824808e-15
8.183920e-15
7.597762e-15
7.061735e-15
6.571688e-15
6.123688e-15
5.714097e-15
5.339699e-15
4.997235e-15
4.684068e-15
4.397555e-15
4.135411e-15
3.895513e-15
3.675987e-15
3.475118e-15
3.291426e-15
3.123409e-15
2.970001e-15
2.830003e-15
2.702440e-15
2.586379e-15
2.481112e-15
2.385927e-15
2.300121e-15
2.223183e-15
2.154651e-15
2.094083e-15
2.040985e-15
1.995198e-15
1.956363e-15
1.924208e-15
1.898621e-15
1.879343e-15
1.866364e-15
1.859489e-15
1.858803e-15
1.864169e-15
1.875773e-15
1.893536e-15
1.917621e-15
1.948161e-15
1.985368e-15
2.029320e-15
2.080469e-15
2.138977e-15
2.205309e-15
2.279766e-15
2.362786e-15
2.455083e-15
2.557144e-15
2.669709e-15
2.793559e-15
2.929254e-15
3.077275e-15
3.238282e-15
3.413623e-15
3.606255e-15
3.821293e-15
4.063835e-15
4.333932e-15
4.619775e-15
4.892655e-15
5.127806e-15
5.330016e-15
5.680378e-15
6.347989e-15
7.711185e-15
8.764287e-15
1.293234e-14
1.293667e-15
2.628772e-14
-1.515614e-13
3.923832e-13
-1.194317e-12
-1.141734e-13
-5.870323e-14
-5.299697e-14
-4.285718e-14
-3.827860e-14
-3.413998e-14
-3.038373e-14
-2.690057e-14
-2.388618e-14
-2.132992e-14
-1.916289e-14
-1.730040e-14
-1.567938e-14
-1.425619e-14
-1.300014e-14
-1.188665e-14
-1.089515e-14
-1.000791e-14
-9.210195e-15
-8.489798e-15
-7.836704e-15
-7.242726e-15
-6.701128e-15
-6.206352e-15
-5.753639e-15
-5.338930e-15
-4.958838e-15
-4.610315e-15
-4.290559e-15
-3.997271e-15
-3.728167e-15
-3.481287e-15
-3.254750e-15
-3.046816e-15
-2.856099e-15
-2.681036e-15
-2.520384e-15
-2.372970e-15
-2.237740e-15
-2.113653e-15
-1.999924e-15
-1.895612e-15
-1.800157e-15
-1.712837e-15
-1.632987e-15
-1.560158e-15
-1.493915e-15
-1.433647e-15
-1.379127e-15
-1.329982e-15
-1.285898e-15
-1.246569e-15
-1.211765e-15
-1.181354e-15
-1.155042e-15
-1.132720e-15
-1.114269e-15
-1.099536e-15
-1.088521e-15
-1.081073e-15
-1.077095e-15
-1.076718e-15
-1.079926e-15
-1.086583e-15
-1.096865e-15
-1.110725e-15
-1.128346e-15
-1.149753e-15
-1.175167e-15
-1.204564e-15
-1.238298e-15
-1.276409e-15
-1.319237e-15
-1.366967e-15
-1.419891e-15
-1.478473e-15
-1.543104e-15
-1.614402e-15
-1.692654e-15
-1.777869e-15
-1.869524e-15
-1.967221e-15
-2.072281e-15
-2.190143e-15
-2.331469e-15
-2.507066e-15
-2.712135e-15
-2.907135e-15
-3.002603e-15
-2.922057e-15
-2.659316e-15
-2.755062e-15
-3.879356e-15
-7.252934e-15
-8.525868e-15
-1.784357e-14
1.055570e-14
-9.796396e-14
4.772735e-13
-1.012859e-12
-8.028288e-15
3.021309e-14
1.848562e-14
1.707313e-14
1.339554e-14
1.111872e-14
9.481031e-15
8.320799e-15
7.353901e-15
6.519634e-15
5.795894e-15
5.175847e-15
4.645612e-15
4.189716e-15
3.793861e-15
3.447064e-15
3.141082e-15
2.869569e-15
2.627374e-15
2.410307e-15
2.214923e-15
2.038422e-15
1.878435e-15
1.733066e-15
1.600701e-15
1.480045e-15
1.369949e-15
1.269370e-15
1.177595e-15
1.093704e-15
1.017082e-15
9.470595e-16
8.830652e-16
8.246396e-16
7.711686e-16
7.223282e-16
6.776754e-16
6.368442e-16
5.994938e-16
5.653881e-16
5.341260e-16
5.056641e-16
4.796089e-16
4.557560e-16
4.340435e-16
4.143386e-16
3.963522e-16
3.801098e-16
3.653762e-16
3.521207e-16
3.402299e-16
3.296545e-16
3.203160e-16
3.121066e-16
3.050402e-16
2.990491e-16
2.940855e-16
2.901422e-16
2.871450e-16
2.851821e-16
2.840884e-16
2.839702e-16
2.847916e-16
2.865811e-16
2.892925e-16
2.930252e-16
2.976993e-16
3.034578e-16
3.101881e-16
3.181039e-16
3.270776e-16
3.373140e-16
3.488003e-16
3.615998e-16
3.758669e-16
3.916532e-16
4.089977e-16
4.279964e-16
4.488004e-16
4.715020e-16
4.965926e-16
5.248435e-16
5.566518e-16
5.916197e-16
6.273701e-16
6.595537e-16
6.869226e-16
7.157795e-16
7.761908e-16
8.918683e-16
1.140653e-15
1.283125e-15
1.381543e-15
3.983059e-16
9.154133e-16
-6.384343e-15
1.704198e-14
-1.064263e-13
4.487582e-13
-1.210100e-12
-3.736886e-14
7.488570e-15
-1.026149e-15
9.793016e-16
-3.149483e-16
-8.117005e-16
-1.043848e-15
-1.001959e-15
-9.301739e-16
-8.693123e-16
-8.256262e-16
-7.860386e-16
-7.451063e-16
-7.023848e-16
-6.597683e-16
-6.186860e-16
-5.796893e-16
-5.428497e-16
-5.081449e-16
-4.753912e-16
-4.444913e-16
-4.154022e-16
-3.880471e-16
-3.624446e-16
-3.384483e-16
-3.160298e-16
-2.951676e-16
-2.757800e-16
-2.577369e-16
-2.410111e-16
-2.255212e-16
-2.112035e-16
-1.979843e-16
-1.857486e-16
-1.745129e-16
-1.641292e-16
-1.545696e-16
-1.457596e-16
-1.376808e-16
-1.302049e-16
-1.234064e-16
-1.171012e-16
-1.112785e-16
-1.060357e-16
-1.011895e-16
-9.675973e-17
-9.276414e-17
-8.908463e-17
-8.577197e-17
-8.278695e-17
-8.010949e-17
-7.771590e-17
-7.558288e-17
-7.374611e-17
-7.215016e-17
-7.079841e-17
-6.967525e-17
-6.877899e-17
-6.811985e-17
-6.765215e-17
-6.741993e-17
-6.740509e-17
-6.767046e-17
-6.802510e-17
-6.869123e-17
-6.953187e-17
-7.061541e-17
-7.189024e-17
-7.348931e-17
-7.525143e-17
-7.736032e-17
-7.968573e-17
-8.230193e-17
-8.520445e-17
-8.840082e-17
-9.194909e-17
-9.592537e-17
-1.004149e-16