<VTKFile type='UnstructuredGrid' version='0.1' byte_order='BigEndian'> 
<UnstructuredGrid> 
<Piece NumberOfPoints=' 11310 ' NumberOfCells=' 10920 '> 
<Points> 
<DataArray type='Float32' NumberOfComponents='3' Format='ascii'> 
  1.220000   0.000000   0.000000 
  1.219842   0.019654   0.000000 
  1.219367   0.039303   0.000000 
  1.218575   0.058942   0.000000 
  1.217468   0.078566   0.000000 
  1.216044   0.098169   0.000000 
  1.214305   0.117747   0.000000 
  1.212250   0.137294   0.000000 
  1.209881   0.156806   0.000000 
  1.207198   0.176277   0.000000 
  1.204201   0.195702   0.000000 
  1.200892   0.215076   0.000000 
  1.197272   0.234395   0.000000 
  1.193340   0.253652   0.000000 
  1.189099   0.272844   0.000000 
  1.184549   0.291965   0.000000 
  1.179692   0.311010   0.000000 
  1.174528   0.329975   0.000000 
  1.169060   0.348854   0.000000 
  1.163288   0.367642   0.000000 
  1.157214   0.386335   0.000000 
  1.150840   0.404928   0.000000 
  1.144168   0.423415   0.000000 
  1.137198   0.441793   0.000000 
  1.129933   0.460056   0.000000 
  1.122375   0.478199   0.000000 
  1.114525   0.496219   0.000000 
  1.106387   0.514109   0.000000 
  1.097961   0.531867   0.000000 
  1.089250   0.549486   0.000000 
  1.080256   0.566962   0.000000 
  1.070982   0.584292   0.000000 
  1.061430   0.601469   0.000000 
  1.051603   0.618491   0.000000 
  1.041503   0.635352   0.000000 
  1.031132   0.652048   0.000000 
  1.020494   0.668575   0.000000 
  1.009590   0.684929   0.000000 
  0.998425   0.701104   0.000000 
  0.987001   0.717098   0.000000 
  0.975320   0.732906   0.000000 
  0.963386   0.748523   0.000000 
  0.951203   0.763946   0.000000 
  0.938772   0.779171   0.000000 
  0.926098   0.794193   0.000000 
  0.913183   0.809010   0.000000 
  0.900031   0.823616   0.000000 
  0.886646   0.838009   0.000000 
  0.873031   0.852184   0.000000 
  0.859189   0.866138   0.000000 
  0.845124   0.879867   0.000000 
  0.830839   0.893368   0.000000 
  0.816339   0.906637   0.000000 
  0.801627   0.919670   0.000000 
  0.786707   0.932465   0.000000 
  0.771583   0.945018   0.000000 
  0.756259   0.957326   0.000000 
  0.740738   0.969385   0.000000 
  0.725025   0.981192   0.000000 
  0.709124   0.992745   0.000000 
  0.693039   1.004040   0.000000 
  0.676774   1.015075   0.000000 
  0.660333   1.025846   0.000000 
  0.643721   1.036351   0.000000 
  0.626942   1.046587   0.000000 
  0.610000   1.056551   0.000000 
  0.592900   1.066241   0.000000 
  0.575646   1.075654   0.000000 
  0.558242   1.084788   0.000000 
  0.540694   1.093641   0.000000 
  0.523005   1.102210   0.000000 
  0.505180   1.110492   0.000000 
  0.487225   1.118486   0.000000 
  0.469143   1.126191   0.000000 
  0.450939   1.133602   0.000000 
  0.432618   1.140720   0.000000 
  0.414185   1.147541   0.000000 
  0.395644   1.154065   0.000000 
  0.377001   1.160289   0.000000 
  0.358260   1.166212   0.000000 
  0.339425   1.171832   0.000000 
  0.320503   1.177148   0.000000 
  0.301498   1.182159   0.000000 
  0.282414   1.186862   0.000000 
  0.263257   1.191258   0.000000 
  0.244031   1.195345   0.000000 
  0.224743   1.199121   0.000000 
  0.205396   1.202586   0.000000 
  0.185995   1.205739   0.000000 
  0.166547   1.208579   0.000000 
  0.147055   1.211105   0.000000 
  0.127525   1.213317   0.000000 
  0.107962   1.215214   0.000000 
  0.088370   1.216795   0.000000 
  0.068756   1.218061   0.000000 
  0.049124   1.219011   0.000000 
  0.029480   1.219644   0.000000 
  0.009827   1.219960   0.000000 
 -0.009827   1.219960   0.000000 
 -0.029480   1.219644   0.000000 
 -0.049124   1.219011   0.000000 
 -0.068756   1.218061   0.000000 
 -0.088370   1.216795   0.000000 
 -0.107962   1.215214   0.000000 
 -0.127525   1.213317   0.000000 
 -0.147055   1.211105   0.000000 
 -0.166547   1.208579   0.000000 
 -0.185995   1.205739   0.000000 
 -0.205396   1.202586   0.000000 
 -0.224743   1.199121   0.000000 
 -0.244031   1.195345   0.000000 
 -0.263257   1.191258   0.000000 
 -0.282414   1.186862   0.000000 
 -0.301498   1.182159   0.000000 
 -0.320503   1.177148   0.000000 
 -0.339425   1.171832   0.000000 
 -0.358260   1.166212   0.000000 
 -0.377001   1.160289   0.000000 
 -0.395644   1.154065   0.000000 
 -0.414185   1.147541   0.000000 
 -0.432618   1.140720   0.000000 
 -0.450939   1.133602   0.000000 
 -0.469143   1.126191   0.000000 
 -0.487225   1.118486   0.000000 
 -0.505180   1.110492   0.000000 
 -0.523005   1.102210   0.000000 
 -0.540694   1.093641   0.000000 
 -0.558242   1.084788   0.000000 
 -0.575646   1.075654   0.000000 
 -0.592900   1.066241   0.000000 
 -0.610000   1.056551   0.000000 
 -0.626942   1.046587   0.000000 
 -0.643721   1.036351   0.000000 
 -0.660333   1.025846   0.000000 
 -0.676774   1.015075   0.000000 
 -0.693039   1.004040   0.000000 
 -0.709124   0.992745   0.000000 
 -0.725025   0.981192   0.000000 
 -0.740738   0.969385   0.000000 
 -0.756259   0.957326   0.000000 
 -0.771583   0.945018   0.000000 
 -0.786707   0.932465   0.000000 
 -0.801627   0.919670   0.000000 
 -0.816339   0.906637   0.000000 
 -0.830839   0.893368   0.000000 
 -0.845124   0.879867   0.000000 
 -0.859189   0.866138   0.000000 
 -0.873031   0.852184   0.000000 
 -0.886646   0.838009   0.000000 
 -0.900031   0.823616   0.000000 
 -0.913183   0.809010   0.000000 
 -0.926098   0.794193   0.000000 
 -0.938772   0.779171   0.000000 
 -0.951203   0.763946   0.000000 
 -0.963386   0.748523   0.000000 
 -0.975320   0.732906   0.000000 
 -0.987001   0.717098   0.000000 
 -0.998425   0.701104   0.000000 
 -1.009590   0.684929   0.000000 
 -1.020494   0.668575   0.000000 
 -1.031132   0.652048   0.000000 
 -1.041503   0.635352   0.000000 
 -1.051603   0.618491   0.000000 
 -1.061430   0.601469   0.000000 
 -1.070982   0.584292   0.000000 
 -1.080256   0.566962   0.000000 
 -1.089250   0.549486   0.000000 
 -1.097961   0.531867   0.000000 
 -1.106387   0.514109   0.000000 
 -1.114525   0.496219   0.000000 
 -1.122375   0.478199   0.000000 
 -1.129933   0.460056   0.000000 
 -1.137198   0.441793   0.000000 
 -1.144168   0.423415   0.000000 
 -1.150840   0.404928   0.000000 
 -1.157214   0.386335   0.000000 
 -1.163288   0.367642   0.000000 
 -1.169060   0.348854   0.000000 
 -1.174528   0.329975   0.000000 
 -1.179692   0.311010   0.000000 
 -1.184549   0.291965   0.000000 
 -1.189099   0.272844   0.000000 
 -1.193340   0.253652   0.000000 
 -1.197272   0.234395   0.000000 
 -1.200892   0.215076   0.000000 
 -1.204201   0.195702   0.000000 
 -1.207198   0.176277   0.000000 
 -1.209881   0.156806   0.000000 
 -1.212250   0.137294   0.000000 
 -1.214305   0.117747   0.000000 
 -1.216044   0.098169   0.000000 
 -1.217468   0.078566   0.000000 
 -1.218575   0.058942   0.000000 
 -1.219367   0.039303   0.000000 
 -1.219842   0.019654   0.000000 
 -1.220000   0.000000   0.000000 
 -1.219842  -0.019654   0.000000 
 -1.219367  -0.039303   0.000000 
 -1.218575  -0.058942   0.000000 
 -1.217468  -0.078566   0.000000 
 -1.216044  -0.098169   0.000000 
 -1.214305  -0.117747   0.000000 
 -1.212250  -0.137294   0.000000 
 -1.209881  -0.156806   0.000000 
 -1.207198  -0.176277   0.000000 
 -1.204201  -0.195702   0.000000 
 -1.200892  -0.215076   0.000000 
 -1.197272  -0.234395   0.000000 
 -1.193340  -0.253652   0.000000 
 -1.189099  -0.272844   0.000000 
 -1.184549  -0.291965   0.000000 
 -1.179692  -0.311010   0.000000 
 -1.174528  -0.329975   0.000000 
 -1.169060  -0.348854   0.000000 
 -1.163288  -0.367642   0.000000 
 -1.157214  -0.386335   0.000000 
 -1.150840  -0.404928   0.000000 
 -1.144168  -0.423415   0.000000 
 -1.137198  -0.441793   0.000000 
 -1.129933  -0.460056   0.000000 
 -1.122375  -0.478199   0.000000 
 -1.114525  -0.496219   0.000000 
 -1.106387  -0.514109   0.000000 
 -1.097961  -0.531867   0.000000 
 -1.089250  -0.549486   0.000000 
 -1.080256  -0.566962   0.000000 
 -1.070982  -0.584292   0.000000 
 -1.061430  -0.601469   0.000000 
 -1.051603  -0.618491   0.000000 
 -1.041503  -0.635352   0.000000 
 -1.031132  -0.652048   0.000000 
 -1.020494  -0.668575   0.000000 
 -1.009590  -0.684929   0.000000 
 -0.998425  -0.701104   0.000000 
 -0.987001  -0.717098   0.000000 
 -0.975320  -0.732906   0.000000 
 -0.963386  -0.748523   0.000000 
 -0.951203  -0.763946   0.000000 
 -0.938772  -0.779171   0.000000 
 -0.926098  -0.794193   0.000000 
 -0.913183  -0.809010   0.000000 
 -0.900031  -0.823616   0.000000 
 -0.886646  -0.838009   0.000000 
 -0.873031  -0.852184   0.000000 
 -0.859189  -0.866138   0.000000 
 -0.845124  -0.879867   0.000000 
 -0.830839  -0.893368   0.000000 
 -0.816339  -0.906637   0.000000 
 -0.801627  -0.919670   0.000000 
 -0.786707  -0.932465   0.000000 
 -0.771583  -0.945018   0.000000 
 -0.756259  -0.957326   0.000000 
 -0.740738  -0.969385   0.000000 
 -0.725025  -0.981192   0.000000 
 -0.709124  -0.992745   0.000000 
 -0.693039  -1.004040   0.000000 
 -0.676774  -1.015075   0.000000 
 -0.660333  -1.025846   0.000000 
 -0.643721  -1.036351   0.000000 
 -0.626942  -1.046587   0.000000 
 -0.610000  -1.056551   0.000000 
 -0.592900  -1.066241   0.000000 
 -0.575646  -1.075654   0.000000 
 -0.558242  -1.084788   0.000000 
 -0.540694  -1.093641   0.000000 
 -0.523005  -1.102210   0.000000 
 -0.505180  -1.110492   0.000000 
 -0.487225  -1.118486   0.000000 
 -0.469143  -1.126191   0.000000 
 -0.450939  -1.133602   0.000000 
 -0.432618  -1.140720   0.000000 
 -0.414185  -1.147541   0.000000 
 -0.395644  -1.154065   0.000000 
 -0.377001  -1.160289   0.000000 
 -0.358260  -1.166212   0.000000 
 -0.339425  -1.171832   0.000000 
 -0.320503  -1.177148   0.000000 
 -0.301498  -1.182159   0.000000 
 -0.282414  -1.186862   0.000000 
 -0.263257  -1.191258   0.000000 
 -0.244031  -1.195345   0.000000 
 -0.224743  -1.199121   0.000000 
 -0.205396  -1.202586   0.000000 
 -0.185995  -1.205739   0.000000 
 -0.166547  -1.208579   0.000000 
 -0.147055  -1.211105   0.000000 
 -0.127525  -1.213317   0.000000 
[...]
<CellData Scalars='scalars'>
<DataArray type='Float32' Name='p' Format='ascii'> 
-18029.111379
-18029.100193
-18029.078501
-18029.024932
-18028.944629
-18028.845818
-18028.739817
-18028.633508
-18028.531099
-18028.432009
-18028.333852
-18028.232887
-18028.125385
-18028.006821
-18027.872909
-18027.721114
-18027.549163
-18027.357419
-18027.147553
-18026.927387
-18026.705720
-18026.491603
-18026.295811
-18026.126122
-18025.988675
-18025.885993
-18025.819531
-18025.789177
-18025.794907
-18025.836880
-18025.915040
-18026.029367
-18026.178162
-18026.356969
-18026.560531
-18026.777946
-18027.001397
-18027.218857
-18027.423039
-18027.608985
-18027.774513
-18027.920441
-18028.048703
-18028.163277
-18028.268914
-18028.368231
-18028.467048
-18028.566956
-18028.670343
-18028.775708
-18028.879094
-18028.969771
-18029.036676
-18029.071725
-18029.075318
-18029.068269
-18029.072203
-18029.076239
-18029.054991
-18029.000012
-18028.917793
-18028.819068
-18028.713521
-18028.608838
-18028.507156
-18028.408840
-18028.310296
-18028.207614
-18028.097838
-18027.974875
-18027.835858
-18027.678880
-18027.501324
-18027.304213
-18027.090846
-18026.869225
-18026.647285
-18026.436555
-18026.246107
-18026.084047
-18025.955217
-18025.861800
-18025.804866
-18025.784391
-18025.800068
-18025.852205
-18025.940494
-18026.064777
-18026.222710
-18026.409407
-18026.617954
-18026.838643
-18027.061674
-18027.276246
-18027.475892
-18027.656688
-18027.816600
-18027.957100
-18028.081797
-18028.192486
-18028.295739
-18028.395198
-18028.492451
-18028.594604
-18028.699043
-18028.804004
-18028.904447
-18028.989894
-18029.048715
-18029.074545
-18029.072362
-18029.067087
-18029.073726
-18029.072498
-18029.041667
-18028.978127
-18028.889991
-18028.788259
-18028.682143
-18028.577779
-18028.478144
-18028.379691
-18028.280533
-18028.176351
-18028.062982
-18027.936858
-18027.793294
-18027.630404
-18027.446549
-18027.244414
-18027.027841
-18026.804787
-18026.585099
-18026.379394
-18026.196403
-18026.043108
-18025.922202
-18025.836425
-18025.790689
-18025.780776
-18025.807131
-18025.869991
-18025.969007
-18026.103783
-18026.270664
-18026.464727
-18026.678185
-18026.900625
-18027.121951
-18027.333181
-18027.527994
-18027.702413
-18027.856822
-18027.992519
-18028.112845
-18028.221416
-18028.322620
-18028.420618
-18028.519844
-18028.621980
-18028.726572
-18028.832073
-18028.928935
-18029.007924
-18029.057765
-18029.074181
-18029.067951
-18029.066041
-18029.073544
-18029.064836
-18029.024477
-18028.953741
-18028.860336
-18028.756767
-18028.651357
-18028.548857
-18028.449790
-18028.351587
-18028.251020
-18028.144859
-18028.028444
-18027.897966
-18027.748933
-18027.580086
-18027.390900
-18027.183910
-18026.964653
-18026.741537
-18026.524810
-18026.324096
-18026.149087
-18026.005182
-18025.896202
-18025.823329
-18025.786926
-18025.787017
-18025.823260
-18025.896384
-18026.005409
-18026.149360
-18026.324335
-18026.524344
-18026.741498
-18026.965415
-18027.183154
-18027.390337
-18027.580182
-18027.749462
-18027.897585
-18028.028154
-18028.145189
-18028.251503
-18028.351485
-18028.450029
-18028.549232
-18028.652039
-18028.757381
-18028.861905
-18028.955424
-18029.026978
-18029.067087
-18029.075136
-18029.067633
-18029.069361
-18029.075591
-18029.059152
-18029.009004
-18028.930538
-18028.833165
-18028.728073
-18028.622935
-18028.521231
-18028.422278
-18028.323939
-18028.222485
-18028.113595
-18027.993110
-18027.857482
-18027.702254
-18027.528267
-18027.333999
-18027.123087
-18026.901853
-18026.679481
-18026.466410
-18026.272392
-18026.105431
-18025.971212
-18025.872362
-18025.809945
-18025.784010
-18025.794316
-18025.841018
-18025.924248
-18026.043335
-18026.196608
-18026.379348
-18026.585235
-18026.805515
-18027.028568
-18027.244914
-18027.447345
-18027.630972
-18027.793840
-18027.937836
-18028.063710
-18028.177260
-18028.281761
-18028.380873
-18028.479053
-18028.579757
-18028.684303
-18028.788577
-18028.891532
-18028.979548
-18029.043304
-18029.074590
-18029.075636
-18029.069270
-18029.074636
-18029.077046
-18029.050989
-18028.992145
-18028.907073
-18028.806596
-18028.700481
-18028.596617
-18028.495509
-18028.397176
-18028.298149
-18028.194856
-18028.083096
-18027.959078
-18027.818334
-18027.658643
-18027.478040
-18027.278520
-18027.063629
-18026.841008
-18026.619955
-18026.411499
-18026.224575
-18026.066687
-18025.942381
-18025.853933
-18025.801432
-18025.793406
-18025.803649
-18025.859936
-18025.953091
-18026.082370
-18026.244737
-18026.435032
-18026.645881
-18026.867855
-18027.089874
-18027.302929
-18027.500153
-18027.678084
-18027.835495
-18027.973658
-18028.095974
-18028.206023
-18028.308682
-18028.406237
-18028.505417
-18028.606678
-18028.711065
-18028.816476
-18028.915929
-18028.998511
-18029.053149
-18029.074988
-18029.070770
-18029.066723
-18029.073817
-18029.069838
-18029.034436
-18028.967384
-18028.876730
-18028.774412
-18028.668728
-18028.564955
-18028.465115
-18028.367049
-18028.267709
-18028.162208
-18028.047475
-18027.918941
-18027.773172
-18027.607530
-18027.421333
-18027.216606
-18026.999282
-18026.769385
-18026.554176
-18026.350995
-18026.170471
-18026.020740
-18025.906030
-18025.827706
-18025.786403
-18025.781355
-18025.813165
-18025.881172
-18025.985878
-18026.125508
-18026.297903
-18026.495695
-18026.711655
-18026.935322
-18027.156580
-18027.365718
-18027.557553
-18027.729345
-18027.880537
-18028.013324
-18028.132081
-18028.239936
-18028.340924
-18028.439263
-18028.538318
-18028.640670
-18028.745706
-18028.848552
-18028.940349
-18029.010562
-18029.047169
-18029.052990
-18029.025432
-53739.147461
-53739.241685
-53739.283658
-53739.303291
-53739.288353
-53739.259423
-53739.213951
-53739.163246
-53739.103834
-53739.040902
-53738.971599
-53738.902670
-53738.830809
-53738.757413
-53738.677968
-53738.593704
-53738.497411
-53738.390420
-53738.267559
-53738.132135
-53737.986354
-53737.833946
-53737.683504
-53737.542248
-53737.418943
-53737.321605
-53737.255473
-53737.223925
-53737.230331
-53737.273129
-53737.351041
-53737.457571
-53737.587691
-53737.733036
-53737.884366
-53738.035575
-53738.179088
-53738.310595
-53738.427818
-53738.531551
-53738.623274
-53738.706362
-53738.782890
-53738.855627
-53738.926420
-53738.995632
-53739.061491
-53739.123621
-53739.179270
-53739.227280
-53739.265786
-53739.289638
-53739.290229
-53739.260886
-53739.204918
-53739.161422
-53739.182067
-53739.239752
-53739.282123
-53739.293321
-53739.277951
-53739.244913
-53739.199848
-53739.147279
-53739.087502
-53739.023156
-53738.954739
-53738.885526
-53738.812221
-53738.738188
-53738.657334
-53738.570273
-53738.471615
-53738.359907
-53738.234578
-53738.095789
-53737.946951
-53737.794940
-53737.645754
-53737.508421
-53737.391306
-53737.301272
-53737.243871
-53737.222572
-53737.238818
-53737.291398
-53737.377664
-53737.491476
-53737.626661
-53737.774681
-53737.927715
-53738.076076
-53738.216661
-53738.343627
-53738.457518
-53738.557290
-53738.647375
-53738.727581
-53738.804189
-53738.874635
-53738.944843
-53739.013583
-53739.078476
-53739.138411
-53739.191958
-53739.237973
-53739.272562
-53739.291536
-53739.284522
-53739.245823
-53739.188570
-53739.159603
-53739.196892
-53739.253099
-53739.287227
-53739.289831
-53739.268208
-53739.231163
-53739.184489
-53739.129430
-53739.068414
-53739.002635
-53738.934173
-53738.863880
-53738.791269
-53738.715951
-53738.632960
-53738.543238
-53738.440840
-53738.325130
-53738.196721
-53738.054635
-53737.904591
-53737.752432
-53737.605811
-53737.473019
-53737.362487
-53737.278262
-53737.229791
-53737.219525
-53737.246606
-53737.309486
-53737.404482
-53737.525428
-53737.665519
-53737.815722
-53737.967676
-53738.115548
-53738.252018
-53738.376039
-53738.485542
-53738.582369
-53738.668294
-53738.747533
-53738.821657
-53738.893303
-53738.962106
-53739.029772
-53739.094415
-53739.153032
-53739.204418
-53739.248051
-53739.278496
-53739.290092
-53739.275404
-53739.227587
-53739.173200
-53739.162877
-53739.211580
-53739.264786
-53739.291889
-53739.283260
-53739.257510
-53739.217310
-53739.167583
-53739.111536
-53739.048121
-53738.982001
-53738.913357
-53738.842212
-53738.769759
-53738.691952
-53738.607846
-53738.515010
-53738.408803
-53738.289489
-53738.156259
-53738.011650
-53737.859889
-53737.708481
-53737.564974
-53737.437963
-53737.335259
-53737.263102
-53737.226028
-53737.226096
-53737.263215
-53737.335895
-53737.438259
-53737.564610
-53737.709015
-53737.859901
-53738.011241
-53738.156805
-53738.289284
-53738.410548
-53738.515112
-53738.609142
-53738.693026
-53738.770191
-53738.843553
-53738.914454
-53738.983166
-53739.050225
-53739.112434
-53739.170011
-53739.218851
-53739.259164
-53739.285306
-53739.290104
-53739.266320
-53739.213001
-53739.163650
-53739.174336
-53739.229133
-53739.276041
-53739.291707
-53739.279957
-53739.248585
-53739.205919
-53739.154225
-53739.095017
-53739.031318
-53738.963913
-53738.894223
-53738.823169
-53738.748556
-53738.669317
-53738.583392
-53738.486258
-53738.377176
-53738.253587
-53738.116753
-53737.969631
-53737.817325
-53737.667247
-53737.527514
-53737.406856
-53737.312155
-53737.249880
-53737.223135
-53737.233202
-53737.281053
-53737.362157
-53737.472876
-53737.605197
-53737.751671
-53737.903920
-53738.053634
-53738.197289
-53738.325926
-53738.440693
-53738.543500
-53738.633790
-53738.716861
-53738.791689
-53738.864744
-53738.934912
-53739.004022
-53739.069801
-53739.130351
-53739.184000
-53739.232158
-53739.269242
-53739.291252
-53739.288660
-53739.255873
-53739.198938
-53739.161558
-53739.190525
-53739.247687
-53739.286841
-53739.293548
-53739.274693
-53739.240980
-53739.194391
-53739.140526
-53739.080556
-53739.015107
-53738.946872
-53738.876966
-53738.804604
-53738.729036
-53738.648717
-53738.559842
-53738.459656
-53738.346423
-53738.218799
-53738.079032
-53737.929716
-53737.777682
-53737.629560
-53737.494852
-53737.380995
-53737.296287
-53737.245230
-53737.242331
-53737.230496
-53737.296889
-53737.387623
-53737.505743
-53737.643560
-53737.792820
-53737.945427
-53738.093845
-53738.233134
-53738.358378
-53738.470672
-53738.569341
-53738.656575
-53738.737029
-53738.811351
-53738.882991
-53738.953505
-53739.021143
-53739.084990
-53739.145039
-53739.197938
-53739.242435
-53739.275660
-53739.292969
-53739.281475
-53739.237831
-53739.181794
-53739.159694
-53739.202917
-53739.258772
-53739.289604
-53739.288512
-53739.263899
-53739.225359
-53739.177270
-53739.121313
-53739.059899
-53738.993961
-53738.924930
-53738.854410
-53738.781935
-53738.705355
-53738.622694
-53738.531096
-53738.427675
-53738.310555
-53738.181111
-53738.023502
-53737.866654
-53737.699272
-53737.581352
-53737.452242
-53737.346366
-53737.269752
-53737.228421
-53737.222754
-53737.255917
-53737.323924
-53737.422400
-53737.547341
-53737.689041
-53737.839596
-53737.991880
-53738.138445
-53738.273277
-53738.394502
-53738.502618
-53738.596910
-53738.682311
-53738.759732
-53738.834265
-53738.904398
-53738.974259
-53739.040106
-53739.103276
-53739.159318
-53739.209585
-53739.247790
-53739.276484
-53739.278860
-53739.259624
-53739.200121
-53739.189707
-89449.585676
-89449.634174
-89449.740653
-89449.775191
-89449.789971
-89449.779750
-89449.777887
-89449.770033
-89449.770661
-89449.763266
-89449.758889
-89449.748276
-89449.740631
-89449.729256
-89449.706718
-89449.683367
-89449.660027
-89449.609141
-89449.544589
-89449.469067
-89449.383927
-89449.284224
-89449.183906
-89449.086613
-89448.998904
-89448.926468
-89448.880317
-89448.854456
-89448.859367
-89448.892115
-89448.949278
-89449.026280
-89449.118924
-89449.216783
-89449.317076
-89449.411738
-89449.496616
-89449.568637
-89449.623357
-89449.666018
-89449.695537
-89449.714875
-89449.729137
-89449.740187
-89449.750521
-89449.757229
-89449.762970
-89449.765392
-89449.770712
-89449.774759
-89449.780745
-89449.783260
-89449.763391
-89449.702386
-89449.611733
-89449.553207
-89449.581264
-89449.666871
-89449.744746
-89449.778750
-89449.783502
-89449.777170
-89449.772099
-89449.769030
-89449.766051
-89449.761435
-89449.754591
-89449.745769
-89449.736197
-89449.720008
-89449.704433
-89449.679058
-89449.643269
-89449.592974
-89449.527843
-89449.447876
-89449.356847
-89449.258462
-89449.158611
-89449.063526
-89448.979642
-89448.913440
-89448.870526
-89448.854794
-89448.866851
-89448.906454
-89448.969470
-89449.051734
-89449.145491
-89449.245343
-89449.343977
-89449.436450
-89449.517520
-89449.584937
-89449.636880
-89449.674965
-89449.701045
-89449.719809
-89449.732809
-89449.743854
-89449.752812
-89449.760384
-89449.764619
-89449.766836
-89449.770553
-89449.775379
-89449.781581
-89449.779557
-89449.750976
-89449.677398
-89449.588677
-89449.550160
-89449.600955
-89449.690836
-89449.757093
-89449.780626
-89449.780674
-89449.775140
-89449.768137
-89449.766267
-89449.763681
-89449.757877
-89449.750999
-89449.741381
-89449.730581
-89449.716540
-89449.697134
-89449.670224
-89449.629354
-89449.575387
-89449.506186
-89449.422637
-89449.329130
-89449.230001
-89449.130451
-89449.037245
-89448.956817
-89448.898819
-89448.861260
-89448.852759
-89448.872637
-89448.919471
-89448.988683
-89449.074824
-89449.171372
-89449.271240
-89449.368704
-89449.458483
-89449.536637
-89449.599227
-89449.647010
-89449.681479
-89449.705115
-89449.721577
-89449.734264
-89449.744178
-89449.752545
-89449.759344
-89449.763345
-89449.766460
-89449.769894
-89449.775771
-89449.780432
-89449.772986
-89449.732627
-89449.649931
-89449.567758
-89449.554844
-89449.623601
-89449.713073
-89449.764801
-89449.782001
-89449.775840
-89449.771531
-89449.766097
-89449.765892
-89449.760981
-89449.755478
-89449.746065
-89449.738130
-89449.727125
-89449.710310
-89449.688983
-89449.658503
-89449.614825
-89449.557095
-89449.482493
-89449.395966
-89449.300151
-89449.200578
-89449.102649
-89449.013069
-89448.938525
-89448.884967
-89448.856971
-89448.857051
-89448.885205
-89448.938928
-89449.013331
-89449.102830
-89449.200982
-89449.300640
-89449.396467
-89449.483903
-89449.557311
-89449.615837
-89449.659924
-89449.690938
-89449.711771
-89449.726909
-89449.739005
-89449.748043
-89449.756342
-89449.762106
-89449.765892
-89449.768359
-89449.772418
-89449.778881
-89449.781484
-89449.767540
-89449.714471
-89449.624681
-89449.556742
-89449.569350
-89449.650659
-89449.733787
-89449.774543
-89449.781910
-89449.776610
-89449.771025
-89449.767597
-89449.764823
-89449.760662
-89449.754012
-89449.745451
-89449.735242
-89449.722651
-89449.706087
-89449.682412
-89449.648169
-89449.600455
-89449.537529
-89449.459836
-89449.370091
-89449.272747
-89449.172935
-89449.076853
-89448.990849
-89448.921864
-89448.874945
-89448.854931
-89448.862769
-89448.898564
-89448.958454
-89449.037910
-89449.130564
-89449.229154
-89449.329431
-89449.423035
-89449.505992
-89449.576444
-89449.630002
-89449.670349
-89449.697998
-89449.717757
-89449.731217
-89449.742109
-89449.751931
-89449.759400
-89449.764772
-89449.767228
-89449.770320
-89449.774714
-89449.781035
-89449.781581
-89449.759889
-89449.692859
-89449.602501
-89449.552570
-89449.590223
-89449.679786
-89449.752522
-89449.781535
-89449.783479
-89449.776993
-89449.772304
-89449.769132
-89449.766290
-89449.761174
-89449.754250
-89449.745383
-89449.734668
-89449.721145
-89449.702932
-89449.676602
-89449.639017
-89449.587040
-89449.519760
-89449.438269
-89449.346046
-89449.247344
-89449.148720
-89449.055008
-89448.973574
-89448.910808
-89448.872183
-89448.857636
-89448.872541
-89448.909341
-89448.976880
-89449.060977
-89449.156360
-89449.256546
-89449.354880
-89449.446841
-89449.526433
-89449.593685
-89449.639432
-89449.678308
-89449.703052
-89449.720886
-89449.734213
-89449.744155
-89449.754455
-89449.759059
-89449.763368
-89449.766551
-89449.770280
-89449.776169
-89449.781399
-89449.777632
-89449.743575
-89449.665984
-89449.579377
-89449.552661
-89449.610823
-89449.700795
-89449.762095
-89449.781376
-89449.779767
-89449.773151
-89449.768791
-89449.766165
-89449.762640
-89449.757206
-89449.749589
-89449.740130
-89449.728944
-89449.714301
-89449.694281
-89449.664932
-89449.623766
-89449.567594
-89449.496130
-89449.409620
-89449.313205
-89449.212768
-89449.113682
-89449.022909
-89448.946375
-89448.890179
-89448.858802
-89448.855283
-89448.879783
-89448.930350
-89449.002132
-89449.090035
-89449.186703
-89449.284985
-89449.383790
-89449.471841
-89449.546340
-89449.609254
-89449.650625
-89449.685481
-89449.705644
-89449.724072
-89449.733099
-89449.745758
-89449.749998
-89449.759309
-89449.759764
-89449.765714
-89449.765737
-89449.775805
-89449.774043
-89449.767529
-89449.707468
-89449.641905
-89449.542475
-125160.155289
-125160.232585
-125160.272751
-125160.327877
-125160.338797
-125160.359016
-125160.366841
-125160.391494
-125160.409371
-125160.438597
-125160.458146
-125160.482611
-125160.494889
-125160.503899
-125160.498180
-125160.486704
-125160.459788
-125160.430048
-125160.394964
-125160.368913
-125160.345448
-125160.331606
-125160.317680
-125160.302531
-125160.282130
-125160.261820
-125160.244568
-125160.236348
-125160.237815
-125160.249843
-125160.267592
-125160.289087
-125160.306675
-125160.321676
-125160.333587
-125160.350223
-125160.373111
-125160.405588
-125160.437858
-125160.467974
-125160.488963
-125160.499351
-125160.498800
-125160.489677
-125160.472430
-125160.451068
-125160.425819
-125160.401387
-125160.379275
-125160.362143
-125160.348198
-125160.334318
-125160.307061
-125160.258904
-125160.195694
-125160.164725
-125160.176185
-125160.233665
-125160.290577
-125160.325808
-125160.343318
-125160.356635
-125160.371897
-125160.392327
-125160.415894
-125160.440871
-125160.464279
-125160.483628
-125160.497441
-125160.501409
-125160.494258
-125160.477995
-125160.451046
-125160.418649
-125160.385861
-125160.358738
-125160.339621
-125160.326522
-125160.313684
-125160.296875
-125160.276787
-125160.257204
-125160.242425
-125160.236604
-125160.241276
-125160.254805
-125160.274649
-125160.294175
-125160.311745
-125160.324359
-125160.337120
-125160.354469
-125160.381469
-125160.413984
-125160.446919
-125160.474317
-125160.491780
-125160.500022
-125160.496822
-125160.484492
-125160.465603
-125160.443321
-125160.417974
-125160.393975
-125160.373381
-125160.357118
-125160.343919
-125160.327923
-125160.295056
-125160.240827
-125160.180050
-125160.162770
-125160.187599
-125160.250172
-125160.301104
-125160.330811
-125160.345704
-125160.359065
-125160.375401
-125160.397516
-125160.421123
-125160.446220
-125160.468440
-125160.486630
-125160.497146
-125160.498851
-125160.489716
-125160.469861
-125160.441303
-125160.407924
-125160.376444
-125160.351536
-125160.334557
-125160.321841
-125160.307982
-125160.289900
-125160.270372
-125160.250235
-125160.238241
-125160.234677
-125160.241933
-125160.257500
-125160.277440
-125160.297085
-125160.312894
-125160.325285
-125160.339439
-125160.359795
-125160.387972
-125160.421305
-125160.452922
-125160.478274
-125160.493604
-125160.498021
-125160.492018
-125160.477910
-125160.457321
-125160.434015
-125160.409107
-125160.385676
-125160.366252
-125160.351170
-125160.338212
-125160.317930
-125160.280550
-125160.219659
-125160.169500
-125160.162679
-125160.202356
-125160.265338
-125160.309642
-125160.333380
-125160.349307
-125160.362165
-125160.381401
-125160.402922
-125160.428058
-125160.451944
-125160.473704
-125160.489415
-125160.498169
-125160.496214
-125160.484708
-125160.461437
-125160.431242
-125160.397795
-125160.367674
-125160.345027
-125160.329972
-125160.317637
-125160.303132
-125160.284435
-125160.264176
-125160.246736
-125160.236593
-125160.236576
-125160.246968
-125160.264193
-125160.284944
-125160.303415
-125160.318001
-125160.330248
-125160.345564
-125160.368194
-125160.398488
-125160.432128
-125160.462801
-125160.485368
-125160.497441
-125160.498914
-125160.490330
-125160.473988
-125160.452967
-125160.428252
-125160.403479
-125160.381481
-125160.362961
-125160.349114
-125160.335455
-125160.311609
-125160.266145
-125160.203925
-125160.164612
-125160.169728
-125160.221933
-125160.281300
-125160.319999
-125160.339650
-125160.352873
-125160.367639
-125160.387165
-125160.410482
-125160.435277
-125160.458981
-125160.479047