<VTKFile type='UnstructuredGrid' version='0.1' byte_order='BigEndian'> 
<UnstructuredGrid> 
<Piece NumberOfPoints='  4225 ' NumberOfCells='  4096 '> 
<Points> 
<DataArray type='Float32' NumberOfComponents='3' Format='ascii'> 
0.000000e+00 0.000000e+00 0.000000e+00 
4.687500e+04 0.000000e+00 0.000000e+00 
9.375000e+04 0.000000e+00 0.000000e+00 
1.406250e+05 0.000000e+00 0.000000e+00 
1.875000e+05 0.000000e+00 0.000000e+00 
2.343750e+05 0.000000e+00 0.000000e+00 
2.812500e+05 0.000000e+00 0.000000e+00 
3.281250e+05 0.000000e+00 0.000000e+00 
3.750000e+05 0.000000e+00 0.000000e+00 
4.218750e+05 0.000000e+00 0.000000e+00 
4.687500e+05 0.000000e+00 0.000000e+00 
5.156250e+05 0.000000e+00 0.000000e+00 
5.625000e+05 0.000000e+00 0.000000e+00 
6.093750e+05 0.000000e+00 0.000000e+00 
6.562500e+05 0.000000e+00 0.000000e+00 
7.031250e+05 0.000000e+00 0.000000e+00 
7.500000e+05 0.000000e+00 0.000000e+00 
7.968750e+05 0.000000e+00 0.000000e+00 
8.437500e+05 0.000000e+00 0.000000e+00 
8.906250e+05 0.000000e+00 0.000000e+00 
9.375000e+05 0.000000e+00 0.000000e+00 
9.843750e+05 0.000000e+00 0.000000e+00 
1.031250e+06 0.000000e+00 0.000000e+00 
1.078125e+06 0.000000e+00 0.000000e+00 
1.125000e+06 0.000000e+00 0.000000e+00 
1.171875e+06 0.000000e+00 0.000000e+00 
1.218750e+06 0.000000e+00 0.000000e+00 
1.265625e+06 0.000000e+00 0.000000e+00 
1.312500e+06 0.000000e+00 0.000000e+00 
1.359375e+06 0.000000e+00 0.000000e+00 
1.406250e+06 0.000000e+00 0.000000e+00 
1.453125e+06 0.000000e+00 0.000000e+00 
1.500000e+06 0.000000e+00 0.000000e+00 
1.546875e+06 0.000000e+00 0.000000e+00 
1.593750e+06 0.000000e+00 0.000000e+00 
1.640625e+06 0.000000e+00 0.000000e+00 
1.687500e+06 0.000000e+00 0.000000e+00 
1.734375e+06 0.000000e+00 0.000000e+00 
1.781250e+06 0.000000e+00 0.000000e+00 
1.828125e+06 0.000000e+00 0.000000e+00 
1.875000e+06 0.000000e+00 0.000000e+00 
1.921875e+06 0.000000e+00 0.000000e+00 
1.968750e+06 0.000000e+00 0.000000e+00 
2.015625e+06 0.000000e+00 0.000000e+00 
2.062500e+06 0.000000e+00 0.000000e+00 
2.109375e+06 0.000000e+00 0.000000e+00 
2.156250e+06 0.000000e+00 0.000000e+00 
2.203125e+06 0.000000e+00 0.000000e+00 
2.250000e+06 0.000000e+00 0.000000e+00 
2.296875e+06 0.000000e+00 0.000000e+00 
2.343750e+06 0.000000e+00 0.000000e+00 
2.390625e+06 0.000000e+00 0.000000e+00 
2.437500e+06 0.000000e+00 0.000000e+00 
2.484375e+06 0.000000e+00 0.000000e+00 
2.531250e+06 0.000000e+00 0.000000e+00 
2.578125e+06 0.000000e+00 0.000000e+00 
2.625000e+06 0.000000e+00 0.000000e+00 
2.671875e+06 0.000000e+00 0.000000e+00 
2.718750e+06 0.000000e+00 0.000000e+00 
2.765625e+06 0.000000e+00 0.000000e+00 
2.812500e+06 0.000000e+00 0.000000e+00 
2.859375e+06 0.000000e+00 0.000000e+00 
2.906250e+06 0.000000e+00 0.000000e+00 
2.953125e+06 0.000000e+00 0.000000e+00 
3.000000e+06 0.000000e+00 0.000000e+00 
0.000000e+00 4.687500e+04 0.000000e+00 
4.687500e+04 4.687500e+04 0.000000e+00 
9.375000e+04 4.687500e+04 0.000000e+00 
1.406250e+05 4.687500e+04 0.000000e+00 
1.875000e+05 4.687500e+04 0.000000e+00 
2.343750e+05 4.687500e+04 0.000000e+00 
2.812500e+05 4.687500e+04 0.000000e+00 
3.281250e+05 4.687500e+04 0.000000e+00 
3.750000e+05 4.687500e+04 0.000000e+00 
4.218750e+05 4.687500e+04 0.000000e+00 
4.687500e+05 4.687500e+04 0.000000e+00 
5.156250e+05 4.687500e+04 0.000000e+00 
5.625000e+05 4.687500e+04 0.000000e+00 
6.093750e+05 4.687500e+04 0.000000e+00 
6.562500e+05 4.687500e+04 0.000000e+00 
7.031250e+05 4.687500e+04 0.000000e+00 
7.500000e+05 4.687500e+04 0.000000e+00 
7.968750e+05 4.687500e+04 0.000000e+00 
8.437500e+05 4.687500e+04 0.000000e+00 
8.906250e+05 4.687500e+04 0.000000e+00 
9.375000e+05 4.687500e+04 0.000000e+00 
9.843750e+05 4.687500e+04 0.000000e+00 
1.031250e+06 4.687500e+04 0.000000e+00 
1.078125e+06 4.687500e+04 0.000000e+00 
1.125000e+06 4.687500e+04 0.000000e+00 
1.171875e+06 4.687500e+04 0.000000e+00 
1.218750e+06 4.687500e+04 0.000000e+00 
1.265625e+06 4.687500e+04 0.000000e+00 
1.312500e+06 4.687500e+04 0.000000e+00 
1.359375e+06 4.687500e+04 0.000000e+00 
1.406250e+06 4.687500e+04 0.000000e+00 
1.453125e+06 4.687500e+04 0.000000e+00 
1.500000e+06 4.687500e+04 0.000000e+00 
1.546875e+06 4.687500e+04 0.000000e+00 
1.593750e+06 4.687500e+04 0.000000e+00 
1.640625e+06 4.687500e+04 0.000000e+00 
1.687500e+06 4.687500e+04 0.000000e+00 
1.734375e+06 4.687500e+04 0.000000e+00 
1.781250e+06 4.687500e+04 0.000000e+00 
1.828125e+06 4.687500e+04 0.000000e+00 
1.875000e+06 4.687500e+04 0.000000e+00 
1.921875e+06 4.687500e+04 0.000000e+00 
1.968750e+06 4.687500e+04 0.000000e+00 
2.015625e+06 4.687500e+04 0.000000e+00 
2.062500e+06 4.687500e+04 0.000000e+00 
2.109375e+06 4.687500e+04 0.000000e+00 
2.156250e+06 4.687500e+04 0.000000e+00 
2.203125e+06 4.687500e+04 0.000000e+00 
2.250000e+06 4.687500e+04 0.000000e+00 
2.296875e+06 4.687500e+04 0.000000e+00 
2.343750e+06 4.687500e+04 0.000000e+00 
2.390625e+06 4.687500e+04 0.000000e+00 
2.437500e+06 4.687500e+04 0.000000e+00 
2.484375e+06 4.687500e+04 0.000000e+00 
2.531250e+06 4.687500e+04 0.000000e+00 
2.578125e+06 4.687500e+04 0.000000e+00 
2.625000e+06 4.687500e+04 0.000000e+00 
2.671875e+06 4.687500e+04 0.000000e+00 
2.718750e+06 4.687500e+04 0.000000e+00 
2.765625e+06 4.687500e+04 0.000000e+00 
2.812500e+06 4.687500e+04 0.000000e+00 
2.859375e+06 4.687500e+04 0.000000e+00 
2.906250e+06 4.687500e+04 0.000000e+00 
2.953125e+06 4.687500e+04 0.000000e+00 
3.000000e+06 4.687500e+04 0.000000e+00 
0.000000e+00 9.375000e+04 0.000000e+00 
4.687500e+04 9.375000e+04 0.000000e+00 
9.375000e+04 9.375000e+04 0.000000e+00 
1.406250e+05 9.375000e+04 0.000000e+00 
1.875000e+05 9.375000e+04 0.000000e+00 
2.343750e+05 9.375000e+04 0.000000e+00 
2.812500e+05 9.375000e+04 0.000000e+00 
3.281250e+05 9.375000e+04 0.000000e+00 
3.750000e+05 9.375000e+04 0.000000e+00 
4.218750e+05 9.375000e+04 0.000000e+00 
4.687500e+05 9.375000e+04 0.000000e+00 
5.156250e+05 9.375000e+04 0.000000e+00 
5.625000e+05 9.375000e+04 0.000000e+00 
6.093750e+05 9.375000e+04 0.000000e+00 
6.562500e+05 9.375000e+04 0.000000e+00 
7.031250e+05 9.375000e+04 0.000000e+00 
7.500000e+05 9.375000e+04 0.000000e+00 
7.968750e+05 9.375000e+04 0.000000e+00 
8.437500e+05 9.375000e+04 0.000000e+00 
8.906250e+05 9.375000e+04 0.000000e+00 
9.375000e+05 9.375000e+04 0.000000e+00 
9.843750e+05 9.375000e+04 0.000000e+00 
1.031250e+06 9.375000e+04 0.000000e+00 
1.078125e+06 9.375000e+04 0.000000e+00 
1.125000e+06 9.375000e+04 0.000000e+00 
1.171875e+06 9.375000e+04 0.000000e+00 
1.218750e+06 9.375000e+04 0.000000e+00 
1.265625e+06 9.375000e+04 0.000000e+00 
1.312500e+06 9.375000e+04 0.000000e+00 
1.359375e+06 9.375000e+04 0.000000e+00 
1.406250e+06 9.375000e+04 0.000000e+00 
1.453125e+06 9.375000e+04 0.000000e+00 
1.500000e+06 9.375000e+04 0.000000e+00 
1.546875e+06 9.375000e+04 0.000000e+00 
1.593750e+06 9.375000e+04 0.000000e+00 
1.640625e+06 9.375000e+04 0.000000e+00 
1.687500e+06 9.375000e+04 0.000000e+00 
1.734375e+06 9.375000e+04 0.000000e+00 
1.781250e+06 9.375000e+04 0.000000e+00 
1.828125e+06 9.375000e+04 0.000000e+00 
1.875000e+06 9.375000e+04 0.000000e+00 
1.921875e+06 9.375000e+04 0.000000e+00 
1.968750e+06 9.375000e+04 0.000000e+00 
2.015625e+06 9.375000e+04 0.000000e+00 
2.062500e+06 9.375000e+04 0.000000e+00 
2.109375e+06 9.375000e+04 0.000000e+00 
2.156250e+06 9.375000e+04 0.000000e+00 
2.203125e+06 9.375000e+04 0.000000e+00 
2.250000e+06 9.375000e+04 0.000000e+00 
2.296875e+06 9.375000e+04 0.000000e+00 
2.343750e+06 9.375000e+04 0.000000e+00 
2.390625e+06 9.375000e+04 0.000000e+00 
2.437500e+06 9.375000e+04 0.000000e+00 
2.484375e+06 9.375000e+04 0.000000e+00 
2.531250e+06 9.375000e+04 0.000000e+00 
2.578125e+06 9.375000e+04 0.000000e+00 
2.625000e+06 9.375000e+04 0.000000e+00 
2.671875e+06 9.375000e+04 0.000000e+00 
2.718750e+06 9.375000e+04 0.000000e+00 
2.765625e+06 9.375000e+04 0.000000e+00 
2.812500e+06 9.375000e+04 0.000000e+00 
2.859375e+06 9.375000e+04 0.000000e+00 
2.906250e+06 9.375000e+04 0.000000e+00 
2.953125e+06 9.375000e+04 0.000000e+00 
3.000000e+06 9.375000e+04 0.000000e+00 
0.000000e+00 1.406250e+05 0.000000e+00 
4.687500e+04 1.406250e+05 0.000000e+00 
9.375000e+04 1.406250e+05 0.000000e+00 
1.406250e+05 1.406250e+05 0.000000e+00 
1.875000e+05 1.406250e+05 0.000000e+00 
2.343750e+05 1.406250e+05 0.000000e+00 
2.812500e+05 1.406250e+05 0.000000e+00 
3.281250e+05 1.406250e+05 0.000000e+00 
3.750000e+05 1.406250e+05 0.000000e+00 
4.218750e+05 1.406250e+05 0.000000e+00 
4.687500e+05 1.406250e+05 0.000000e+00 
5.156250e+05 1.406250e+05 0.000000e+00 
5.625000e+05 1.406250e+05 0.000000e+00 
6.093750e+05 1.406250e+05 0.000000e+00 
6.562500e+05 1.406250e+05 0.000000e+00 
7.031250e+05 1.406250e+05 0.000000e+00 
7.500000e+05 1.406250e+05 0.000000e+00 
7.968750e+05 1.406250e+05 0.000000e+00 
8.437500e+05 1.406250e+05 0.000000e+00 
8.906250e+05 1.406250e+05 0.000000e+00 
9.375000e+05 1.406250e+05 0.000000e+00 
9.843750e+05 1.406250e+05 0.000000e+00 
1.031250e+06 1.406250e+05 0.000000e+00 
1.078125e+06 1.406250e+05 0.000000e+00 
1.125000e+06 1.406250e+05 0.000000e+00 
1.171875e+06 1.406250e+05 0.000000e+00 
1.218750e+06 1.406250e+05 0.000000e+00 
1.265625e+06 1.406250e+05 0.000000e+00 
1.312500e+06 1.406250e+05 0.000000e+00 
1.359375e+06 1.406250e+05 0.000000e+00 
1.406250e+06 1.406250e+05 0.000000e+00 
1.453125e+06 1.406250e+05 0.000000e+00 
1.500000e+06 1.406250e+05 0.000000e+00 
1.546875e+06 1.406250e+05 0.000000e+00 
1.593750e+06 1.406250e+05 0.000000e+00 
1.640625e+06 1.406250e+05 0.000000e+00 
1.687500e+06 1.406250e+05 0.000000e+00 
1.734375e+06 1.406250e+05 0.000000e+00 
1.781250e+06 1.406250e+05 0.000000e+00 
1.828125e+06 1.406250e+05 0.000000e+00 
1.875000e+06 1.406250e+05 0.000000e+00 
1.921875e+06 1.406250e+05 0.000000e+00 
1.968750e+06 1.406250e+05 0.000000e+00 
2.015625e+06 1.406250e+05 0.000000e+00 
2.062500e+06 1.406250e+05 0.000000e+00 
2.109375e+06 1.406250e+05 0.000000e+00 
2.156250e+06 1.406250e+05 0.000000e+00 
2.203125e+06 1.406250e+05 0.000000e+00 
2.250000e+06 1.406250e+05 0.000000e+00 
[...]
<CellData Scalars='scalars'>
<DataArray type='Float32' Name='p' Format='ascii'> 
4.266483e+10
4.266388e+10
4.266198e+10
4.265914e+10
4.265538e+10
4.265072e+10
4.264520e+10
4.263884e+10
4.263168e+10
4.262376e+10
4.261511e+10
4.260579e+10
4.259583e+10
4.258528e+10
4.257418e+10
4.256258e+10
4.255052e+10
4.253802e+10
4.252515e+10
4.251191e+10
4.249835e+10
4.248450e+10
4.247037e+10
4.245599e+10
4.244137e+10
4.242653e+10
4.241147e+10
4.239621e+10
4.238075e+10
4.236508e+10
4.234921e+10
4.233313e+10
4.231684e+10
4.230032e+10
4.228357e+10
4.226657e+10
4.224933e+10
4.223183e+10
4.221407e+10
4.219604e+10
4.217774e+10
4.215918e+10
4.214036e+10
4.212131e+10
4.210205e+10
4.208261e+10
4.206304e+10
4.204338e+10
4.202372e+10
4.200414e+10
4.198472e+10
4.196560e+10
4.194689e+10
4.192875e+10
4.191135e+10
4.189485e+10
4.187947e+10
4.186539e+10
4.185282e+10
4.184197e+10
4.183302e+10
4.182614e+10
4.182148e+10
4.181912e+10
4.136218e+10
4.136124e+10
4.135936e+10
4.135655e+10
4.135283e+10
4.134823e+10
4.134277e+10
4.133648e+10
4.132940e+10
4.132157e+10
4.131302e+10
4.130381e+10
4.129397e+10
4.128355e+10
4.127260e+10
4.126114e+10
4.124923e+10
4.123690e+10
4.122419e+10
4.121114e+10
4.119776e+10
4.118409e+10
4.117016e+10
4.115598e+10
4.114156e+10
4.112693e+10
4.111209e+10
4.109705e+10
4.108180e+10
4.106636e+10
4.105071e+10
4.103485e+10
4.101878e+10
4.100249e+10
4.098597e+10
4.096921e+10
4.095220e+10
4.093493e+10
4.091740e+10
4.089960e+10
4.088153e+10
4.086320e+10
4.084462e+10
4.082580e+10
4.080676e+10
4.078755e+10
4.076819e+10
4.074875e+10
4.072930e+10
4.070992e+10
4.069071e+10
4.067177e+10
4.065324e+10
4.063528e+10
4.061803e+10
4.060169e+10
4.058644e+10
4.057248e+10
4.056002e+10
4.054926e+10
4.054039e+10
4.053357e+10
4.052894e+10
4.052661e+10
4.004660e+10
4.004568e+10
4.004383e+10
4.004108e+10
4.003744e+10
4.003293e+10
4.002758e+10
4.002143e+10
4.001450e+10
4.000684e+10
3.999848e+10
3.998948e+10
3.997987e+10
3.996969e+10
3.995900e+10
3.994782e+10
3.993621e+10
3.992419e+10
3.991180e+10
3.989908e+10
3.988606e+10
3.987275e+10
3.985919e+10
3.984540e+10
3.983138e+10
3.981715e+10
3.980271e+10
3.978808e+10
3.977326e+10
3.975824e+10
3.974303e+10
3.972761e+10
3.971198e+10
3.969613e+10
3.968006e+10
3.966374e+10
3.964718e+10
3.963037e+10
3.961329e+10
3.959595e+10
3.957833e+10
3.956046e+10
3.954232e+10
3.952395e+10
3.950536e+10
3.948658e+10
3.946766e+10
3.944864e+10
3.942960e+10
3.941062e+10
3.939180e+10
3.937323e+10
3.935506e+10
3.933743e+10
3.932051e+10
3.930446e+10
3.928948e+10
3.927576e+10
3.926352e+10
3.925294e+10
3.924422e+10
3.923751e+10
3.923297e+10
3.923067e+10
3.871930e+10
3.871840e+10
3.871660e+10
3.871393e+10
3.871038e+10
3.870600e+10
3.870080e+10
3.869482e+10
3.868810e+10
3.868067e+10
3.867257e+10
3.866385e+10
3.865454e+10
3.864470e+10
3.863436e+10
3.862357e+10
3.861236e+10
3.860077e+10
3.858883e+10
3.857658e+10
3.856404e+10
3.855125e+10
3.853821e+10
3.852495e+10
3.851148e+10
3.849782e+10
3.848396e+10
3.846992e+10
3.845570e+10
3.844129e+10
3.842669e+10
3.841189e+10
3.839689e+10
3.838168e+10
3.836624e+10
3.835057e+10
3.833466e+10
3.831850e+10
3.830207e+10
3.828538e+10
3.826843e+10
3.825120e+10
3.823372e+10
3.821600e+10
3.819805e+10
3.817990e+10
3.816161e+10
3.814321e+10
3.812477e+10
3.810638e+10
3.808811e+10
3.807010e+10
3.805245e+10
3.803531e+10
3.801885e+10
3.800323e+10
3.798865e+10
3.797529e+10
3.796336e+10
3.795306e+10
3.794455e+10
3.793802e+10
3.793358e+10
3.793134e+10
3.738189e+10
3.738102e+10
3.737928e+10
3.737668e+10
3.737325e+10
3.736901e+10
3.736398e+10
3.735820e+10
3.735170e+10
3.734453e+10
3.733673e+10
3.732833e+10
3.731938e+10
3.730993e+10
3.730000e+10
3.728966e+10
3.727893e+10
3.726784e+10
3.725644e+10
3.724476e+10
3.723281e+10
3.722062e+10
3.720822e+10
3.719561e+10
3.718282e+10
3.716985e+10
3.715670e+10
3.714339e+10
3.712990e+10
3.711624e+10
3.710240e+10
3.708838e+10
3.707417e+10
3.705975e+10
3.704511e+10
3.703025e+10
3.701515e+10
3.699981e+10
3.698421e+10
3.696835e+10
3.695222e+10
3.693582e+10
3.691917e+10
3.690226e+10
3.688513e+10
3.686780e+10
3.685030e+10
3.683269e+10
3.681502e+10
3.679738e+10
3.677984e+10
3.676252e+10
3.674555e+10
3.672905e+10
3.671319e+10
3.669813e+10
3.668406e+10
3.667117e+10
3.665964e+10
3.664969e+10
3.664147e+10
3.663515e+10
3.663087e+10
3.662870e+10
3.603620e+10
3.603536e+10
3.603367e+10
3.603116e+10
3.602784e+10
3.602373e+10
3.601887e+10
3.601329e+10
3.600703e+10
3.600013e+10
3.599262e+10
3.598456e+10
3.597598e+10
3.596693e+10
3.595745e+10
3.594759e+10
3.593737e+10
3.592683e+10
3.591601e+10
3.590494e+10
3.589364e+10
3.588213e+10
3.587043e+10
3.585855e+10
3.584651e+10
3.583432e+10
3.582197e+10
3.580948e+10
3.579683e+10
3.578402e+10
3.577106e+10
3.575792e+10
3.574460e+10
3.573110e+10
3.571739e+10
3.570346e+10
3.568931e+10
3.567491e+10
3.566027e+10
3.564537e+10
3.563021e+10
3.561478e+10
3.559910e+10
3.558316e+10
3.556699e+10
3.555061e+10
3.553406e+10
3.551738e+10
3.550062e+10
3.548387e+10
3.546720e+10
3.545072e+10
3.543455e+10
3.541881e+10
3.540367e+10
3.538928e+10
3.537583e+10
3.536349e+10
3.535246e+10
3.534293e+10
3.533506e+10
3.532901e+10
3.532490e+10
3.532282e+10
3.468409e+10
3.468327e+10
3.468163e+10
3.467919e+10
3.467597e+10
3.467198e+10
3.466728e+10
3.466188e+10
3.465583e+10
3.464918e+10
3.464196e+10
3.463421e+10
3.462599e+10
3.461734e+10
3.460830e+10
3.459891e+10
3.458920e+10
3.457922e+10
3.456899e+10
3.455855e+10
3.454791e+10
3.453710e+10
3.452613e+10
3.451502e+10
3.450377e+10
3.449240e+10
3.448090e+10
3.446927e+10
3.445752e+10
3.444563e+10
3.443361e+10
3.442143e+10
3.440909e+10
3.439657e+10
3.438386e+10
3.437096e+10
3.435784e+10
3.434449e+10
3.433090e+10
3.431706e+10
3.430297e+10
3.428862e+10
3.427401e+10
3.425916e+10
3.424406e+10
3.422875e+10
3.421326e+10
3.419762e+10
3.418189e+10
3.416614e+10
3.415046e+10
3.413492e+10
3.411966e+10
3.410480e+10
3.409047e+10
3.407685e+10
3.406411e+10
3.405241e+10
3.404195e+10
3.403290e+10
3.402543e+10
3.401968e+10
3.401578e+10
3.401381e+10
3.332728e+10
3.332647e+10
3.332487e+10
3.332249e+10
3.331934e+10
3.331546e+10
3.331088e+10
3.330564e+10
3.329977e+10
3.329333e+10
3.328636e+10
3.327890e+10
3.327101e+10
3.326272e+10
3.325408e+10
3.324513e+10
3.323591e+10
3.322646e+10
3.321680e+10
3.320697e+10
3.319698e+10
3.318686e+10
3.317662e+10
3.316627e+10
3.315582e+10
3.314527e+10
3.313463e+10
3.312390e+10
3.311306e+10
3.310211e+10
3.309105e+10
3.307986e+10
3.306853e+10
3.305704e+10
3.304539e+10
3.303355e+10
3.302152e+10
3.300927e+10
3.299679e+10
3.298408e+10
3.297113e+10
3.295792e+10
3.294446e+10
3.293075e+10
3.291681e+10
3.290265e+10
3.288830e+10
3.287379e+10
3.285918e+10
3.284452e+10
3.282990e+10
3.281541e+10
3.280114e+10
3.278723e+10
3.277381e+10
3.276104e+10
3.274907e+10
3.273809e+10
3.272825e+10
3.271974e+10
3.271271e+10
3.270731e+10
3.270364e+10
3.270178e+10
3.196724e+10
3.196645e+10
3.196487e+10
3.196253e+10
3.195944e+10
3.195563e+10
3.195115e+10
3.194602e+10
3.194030e+10
3.193403e+10
3.192726e+10
3.192005e+10
3.191243e+10
3.190446e+10
3.189617e+10
3.188763e+10
3.187885e+10
3.186988e+10
3.186076e+10
3.185149e+10
3.184212e+10
3.183265e+10
3.182311e+10
3.181349e+10
3.180381e+10
3.179407e+10
3.178427e+10
3.177441e+10
3.176448e+10
3.175447e+10
3.174437e+10
3.173416e+10
3.172385e+10
3.171340e+10
3.170280e+10
3.169205e+10
3.168111e+10
3.166998e+10
3.165864e+10
3.164709e+10
3.163530e+10
3.162327e+10
3.161099e+10
3.159848e+10
3.158574e+10
3.157277e+10
3.155961e+10
3.154629e+10
3.153285e+10
3.151935e+10
3.150585e+10
3.149245e+10
3.147925e+10
3.146636e+10
3.145391e+10
3.144204e+10
3.143091e+10
3.142069e+10
3.141153e+10
3.140361e+10
3.139706e+10
3.139202e+10
3.138860e+10
3.138687e+10
3.060518e+10
3.060440e+10
3.060283e+10
3.060051e+10
3.059745e+10
3.059369e+10
3.058927e+10
3.058423e+10
3.057861e+10
3.057247e+10
3.056587e+10
3.055884e+10
3.055145e+10
3.054374e+10
3.053577e+10
3.052757e+10
3.051919e+10
3.051065e+10
3.050200e+10
3.049326e+10
3.048445e+10
3.047559e+10
3.046669e+10
3.045777e+10
3.044881e+10
3.043984e+10
3.043084e+10
3.042181e+10
3.041275e+10
3.040364e+10
3.039447e+10
3.038522e+10
3.037589e+10
3.036646e+10
3.035690e+10
3.034721e+10
3.033736e+10
3.032734e+10
3.031713e+10
3.030672e+10
3.029610e+10
3.028525e+10
3.027417e+10
3.026286e+10
3.025133e+10
3.023958e+10
3.022763e+10
3.021552e+10
3.020328e+10
3.019096e+10
3.017863e+10
3.016637e+10
3.015427e+10
3.014243e+10
3.013099e+10
3.012008e+10
3.010983e+10
3.010041e+10
3.009197e+10
3.008466e+10
3.007861e+10
3.007396e+10
3.007081e+10
3.006921e+10
2.924201e+10
2.924122e+10
2.923966e+10
2.923735e+10
2.923430e+10
2.923057e+10
2.922618e+10
2.922118e+10
2.921564e+10
2.920959e+10
2.920311e+10
2.919623e+10
2.918902e+10
2.918154e+10
2.917382e+10
2.916592e+10
2.915787e+10
2.914972e+10
2.914149e+10
2.913322e+10
2.912492e+10
2.911661e+10
2.910831e+10
2.910001e+10
2.909173e+10
2.908347e+10
2.907522e+10
2.906697e+10
2.905873e+10
2.905046e+10
2.904218e+10
2.903384e+10
2.902545e+10
2.901699e+10
2.900843e+10
2.899976e+10
2.899096e+10
2.898201e+10
2.897290e+10
2.896361e+10
2.895412e+10
2.894443e+10
2.893452e+10
2.892440e+10
2.891407e+10
2.890352e+10
2.889278e+10
2.888188e+10
2.887084e+10
2.885972e+10
2.884857e+10
2.883746e+10
2.882647e+10
2.881572e+10
2.880531e+10
2.879537e+10
2.878603e+10
2.877744e+10
2.876974e+10
2.876307e+10
2.875755e+10
2.875330e+10
2.875042e+10
2.874896e+10
2.787836e+10
2.787758e+10
2.787601e+10
2.787370e+10
2.787065e+10
2.786692e+10
2.786254e+10
2.785758e+10
2.785207e+10
2.784609e+10
2.783969e+10
2.783293e+10
2.782587e+10
2.781856e+10
2.781106e+10
2.780341e+10
2.779566e+10
2.778784e+10
2.777999e+10
2.777214e+10
2.776429e+10
2.775648e+10
2.774872e+10
2.774100e+10
2.773334e+10
2.772572e+10
2.771816e+10
2.771064e+10
2.770315e+10
2.769567e+10
2.768820e+10
2.768072e+10
2.767321e+10
2.766566e+10
2.765804e+10
2.765033e+10
2.764252e+10
2.763460e+10
2.762653e+10
2.761830e+10
2.760990e+10
2.760132e+10
2.759255e+10
2.758357e+10
2.757440e+10
2.756503e+10
2.755548e+10
2.754576e+10
2.753591e+10
2.752596e+10
2.751597e+10
2.750601e+10
2.749615e+10
2.748648e+10
2.747711e+10
2.746816e+10
2.745974e+10
2.745199e+10
2.744504e+10
2.743901e+10
2.743403e+10
2.743020e+10
2.742760e+10
2.742628e+10
2.651470e+10
2.651391e+10
2.651234e+10
2.651001e+10
2.650695e+10
2.650321e+10
2.649884e+10
2.649388e+10
2.648840e+10
2.648246e+10
2.647612e+10
2.646945e+10
2.646251e+10
2.645535e+10
2.644804e+10
2.644061e+10
2.643312e+10
2.642560e+10
2.641808e+10
2.641060e+10
2.640317e+10
2.639581e+10
2.638853e+10
2.638133e+10
2.637423e+10
2.636721e+10
2.636027e+10
2.635341e+10
2.634661e+10
2.633986e+10
2.633315e+10
2.632645e+10
2.631975e+10
2.631304e+10
2.630629e+10
2.629948e+10
2.629260e+10
2.628562e+10
2.627852e+10
2.627130e+10
2.626393e+10
2.625640e+10
2.624870e+10
2.624081e+10
2.623275e+10
2.622450e+10
2.621608e+10
2.620751e+10
2.619881e+10
2.619001e+10
2.618116e+10
2.617232e+10
2.616357e+10
2.615497e+10
2.614663e+10
2.613866e+10
2.613116e+10
2.612425e+10
2.611805e+10
2.611268e+10
2.610824e+10
2.610483e+10
2.610250e+10
2.610133e+10
2.515130e+10
2.515050e+10
2.514892e+10
2.514658e+10
2.514350e+10
2.513975e+10
2.513536e+10
2.513041e+10
2.512494e+10
2.511903e+10
2.511274e+10
2.510615e+10
2.509931e+10
2.509229e+10
2.508514e+10
2.507791e+10
2.507065e+10
2.506339e+10
2.505618e+10
2.504904e+10
2.504198e+10
2.503503e+10
2.502820e+10
2.502148e+10
2.501488e+10
2.500841e+10
2.500204e+10
2.499578e+10
2.498961e+10
2.498352e+10
2.497749e+10
2.497151e+10
2.496555e+10
2.495961e+10
2.495365e+10
2.494767e+10
2.494163e+10
2.493553e+10
2.492934e+10
2.492304e+10
2.491662e+10
2.491007e+10
2.490337e+10
2.489651e+10
2.488949e+10
2.488230e+10
2.487496e+10
2.486748e+10
2.485987e+10
2.485217e+10
2.484442e+10
2.483667e+10
2.482899e+10
2.482144e+10
2.481411e+10
2.480710e+10
2.480050e+10
2.479442e+10
2.478898e+10
2.478425e+10
2.478035e+10
2.477735e+10
2.477531e+10
2.477428e+10
2.378834e+10
2.378753e+10
2.378594e+10
2.378358e+10
2.378049e+10
2.377672e+10
2.377232e+10
2.376736e+10
2.376190e+10
2.375602e+10
2.374978e+10
2.374326e+10
2.373651e+10
2.372962e+10
2.372262e+10
2.371558e+10
2.370853e+10
2.370153e+10
2.369460e+10
2.368777e+10
2.368107e+10
2.367449e+10
2.366807e+10
2.366179e+10
2.365566e+10
2.364967e+10
2.364383e+10
2.363812e+10
2.363252e+10
2.362703e+10
2.362162e+10
2.361628e+10
2.361100e+10
2.360575e+10
2.360052e+10
2.359528e+10
2.359002e+10
2.358471e+10
2.357934e+10
2.357389e+10
2.356835e+10
2.356269e+10
2.355691e+10
2.355100e+10
2.354494e+10
2.353875e+10
2.353242e+10
2.352596e+10
2.351939e+10
2.351273e+10
2.350603e+10
2.349932e+10
2.349266e+10
2.348612e+10
2.347977e+10
2.347369e+10
2.346798e+10
2.346271e+10
2.345800e+10
2.345391e+10
2.345054e+10
2.344794e+10
2.344618e+10
2.344529e+10
2.242591e+10
2.242510e+10
2.242350e+10
2.242112e+10
2.241801e+10
2.241423e+10
2.240982e+10
2.240486e+10
2.239942e+10
2.239356e+10
2.238737e+10
2.238092e+10
2.237428e+10
2.236750e+10
2.236066e+10
2.235380e+10
2.234696e+10
2.234020e+10
2.233355e+10
2.232702e+10
2.232064e+10
2.231442e+10
2.230837e+10
2.230250e+10
2.229680e+10
2.229127e+10
2.228591e+10
2.228069e+10
2.227561e+10
2.227066e+10
2.226582e+10
2.226107e+10
2.225639e+10
2.225177e+10
2.224718e+10
2.224262e+10
2.223805e+10
2.223346e+10
2.222883e+10
2.222415e+10
2.221940e+10
2.221456e+10
2.220962e+10
2.220457e+10
2.219941e+10
2.219412e+10
2.218872e+10
2.218322e+10
2.217761e+10
2.217194e+10
2.216622e+10
2.216050e+10
2.215482e+10
2.214924e+10
2.214383e+10
2.213865e+10
2.213378e+10
2.212931e+10
2.212530e+10
2.212183e+10
2.211897e+10
2.211677e+10
2.211528e+10
2.211453e+10
2.106408e+10
2.106326e+10
2.106164e+10
2.105926e+10
2.105614e+10
2.105234e+10
2.104793e+10
2.104298e+10
2.103755e+10
2.103174e+10
2.102560e+10
2.101923e+10
2.101269e+10
2.100604e+10
2.099935e+10
2.099268e+10
2.098606e+10
2.097954e+10
2.097315e+10
2.096691e+10
2.096084e+10
2.095496e+10
2.094928e+10
2.094379e+10
2.093849e+10
2.093338e+10
2.092846e+10
2.092370e+10
2.091909e+10
2.091463e+10
2.091030e+10
2.090608e+10
2.090194e+10
2.089788e+10
2.089388e+10
2.088991e+10
2.088597e+10
2.088202e+10
2.087806e+10
2.087406e+10
2.087002e+10
2.086592e+10
2.086174e+10
2.085747e+10
2.085312e+10
2.084867e+10
2.084413e+10
2.083950e+10
2.083479e+10
2.083003e+10
2.082523e+10
2.082043e+10
2.081567e+10
2.081101e+10
2.080648e+10
2.080216e+10
2.079811e+10
2.079439e+10
2.079106e+10
2.078819e+10
2.078583e+10
2.078401e+10
2.078278e+10
2.078216e+10
1.970285e+10
1.970203e+10
1.970041e+10
1.969801e+10
1.969489e+10
1.969109e+10
1.968668e+10
1.968175e+10
1.967635e+10
1.967058e+10
1.966452e+10
1.965823e+10
1.965180e+10
1.964530e+10
1.963878e+10
1.963229e+10
1.962589e+10
1.961961e+10
1.961348e+10
1.960753e+10
1.960177e+10
1.959622e+10
1.959088e+10
1.958576e+10
1.958084e+10
1.957612e+10
1.957160e+10
1.956726e+10
1.956310e+10
1.955908e+10
1.955521e+10
1.955146e+10
1.954782e+10
1.954426e+10
1.954078e+10
1.953735e+10
1.953395e+10
1.953058e+10
1.952721e+10
1.952382e+10
1.952042e+10
1.951697e+10
1.951347e+10
1.950991e+10
1.950629e+10
1.950260e+10
1.949883e+10
1.949501e+10
1.949112e+10
1.948720e+10
1.948325e+10
1.947932e+10
1.947542e+10
1.947161e+10
1.946793e+10
1.946442e+10
1.946114e+10
1.945813e+10
1.945546e+10
1.945315e+10
1.945126e+10
1.944981e+10
1.944883e+10
1.944834e+10
1.834225e+10
1.834143e+10
1.833980e+10
1.833740e+10
1.833427e+10
1.833048e+10
1.832609e+10
1.832118e+10
1.831583e+10
1.831012e+10
1.830413e+10
1.829795e+10
1.829165e+10
1.828530e+10
1.827895e+10
1.827267e+10
1.826649e+10
1.826045e+10
1.825460e+10
1.824893e+10
1.824348e+10
1.823825e+10
1.823324e+10
1.822846e+10
1.822391e+10
1.821956e+10
1.821542e+10
1.821147e+10
1.820770e+10
1.820410e+10
1.820065e+10
1.819732e+10
1.819412e+10
1.819101e+10
1.818799e+10
1.818503e+10
1.818213e+10
1.817926e+10
1.817642e+10
1.817358e+10
1.817073e+10
1.816787e+10
1.816498e+10
1.816205e+10
1.815909e+10
1.815607e+10
1.815301e+10
1.814991e+10
1.814678e+10
1.814363e+10
1.814047e+10
1.813733e+10
1.813424e+10
1.813123e+10
1.812833e+10
1.812558e+10
1.812303e+10
1.812070e+10
1.811864e+10
1.811688e+10
1.811543e+10
1.811434e+10
1.811359e+10
1.811322e+10
1.698226e+10
1.698143e+10
1.697981e+10
1.697741e+10
1.697429e+10
1.697051e+10
1.696615e+10
1.696128e+10
1.695598e+10
1.695034e+10
1.694446e+10
1.693839e+10
1.693223e+10
1.692604e+10
1.691989e+10
1.691381e+10
1.690787e+10
1.690209e+10
1.689650e+10
1.689113e+10
1.688598e+10
1.688106e+10
1.687638e+10
1.687194e+10
1.686772e+10
1.686373e+10
1.685995e+10
1.685636e+10
1.685296e+10
1.684973e+10
1.684666e+10
1.684372e+10
1.684091e+10
1.683821e+10
1.683560e+10
1.683307e+10
1.683060e+10
1.682818e+10
1.682579e+10
1.682343e+10
1.682108e+10
1.681874e+10
1.681639e+10
1.681402e+10
1.681164e+10
1.680924e+10
1.680682e+10
1.680438e+10
1.680193e+10
1.679948e+10
1.679704e+10
1.679464e+10
1.679229e+10
1.679002e+10
1.678785e+10
1.678582e+10
1.678395e+10
1.678226e+10
1.678077e+10
1.677952e+10
1.677850e+10
1.677773e+10
1.677721e+10
1.677695e+10
1.562287e+10
1.562205e+10
1.562043e+10
1.561804e+10
1.561494e+10
1.561118e+10
1.560685e+10
1.560203e+10
1.559681e+10
1.559126e+10
1.558548e+10
1.557955e+10
1.557355e+10
1.556754e+10
1.556158e+10
1.555573e+10
1.555003e+10
1.554451e+10
1.553920e+10
1.553412e+10
1.552927e+10
1.552466e+10
1.552030e+10
1.551619e+10
1.551230e+10
1.550864e+10
1.550519e+10
1.550195e+10
1.549889e+10
1.549601e+10
1.549328e+10
1.549069e+10
1.548824e+10
1.548589e+10
1.548365e+10
1.548149e+10
1.547940e+10
1.547738e+10
1.547540e+10
1.547346e+10
1.547156e+10
1.546967e+10
1.546779e+10
1.546593e+10
1.546407e+10
1.546221e+10
1.546036e+10
1.545852e+10
1.545669e+10
1.545488e+10
1.545310e+10
1.545137e+10
1.544971e+10
1.544812e+10
1.544664e+10
1.544527e+10
1.544403e+10
1.544294e+10
1.544200e+10
1.544121e+10
1.544059e+10
1.544013e+10
1.543982e+10
1.543967e+10
1.426407e+10
1.426325e+10
1.426164e+10
1.425927e+10
1.425619e+10
1.425247e+10
1.424819e+10
1.424343e+10
1.423829e+10
1.423285e+10
1.422720e+10
1.422142e+10
1.421558e+10
1.420977e+10
1.420403e+10
1.419841e+10
1.419296e+10
1.418771e+10
1.418268e+10
1.417788e+10
1.417334e+10
1.416904e+10
1.416499e+10
1.416119e+10
1.415762e+10
1.415428e+10
1.415115e+10
1.414822e+10
1.414548e+10
1.414291e+10
1.414050e+10
1.413824e+10
1.413610e+10
1.413408e+10
1.413216e+10
1.413034e+10
1.412859e+10
1.412691e+10
1.412530e+10
1.412373e+10
1.412221e+10
1.412073e+10
1.411927e+10
1.411785e+10
1.411646e+10
1.411509e+10
1.411375e+10
1.411244e+10
1.411117e+10
1.410995e+10
1.410877e+10
1.410766e+10
1.410663e+10
1.410568e+10
1.410482e+10
1.410407e+10
1.410342e+10
1.410288e+10
1.410244e+10
1.410210e+10
1.410185e+10
1.410167e+10
1.410157e+10
1.410151e+10
1.290584e+10
1.290503e+10
1.290343e+10
1.290108e+10
1.289803e+10
1.289436e+10
1.289014e+10
1.288546e+10
1.288042e+10
1.287509e+10
1.286958e+10
1.286397e+10
1.285832e+10
1.285271e+10
1.284720e+10
1.284182e+10
1.283663e+10
1.283165e+10
1.282691e+10
1.282241e+10
1.281816e+10
1.281416e+10
1.281042e+10
1.280692e+10
1.280365e+10
1.280062e+10
1.279779e+10
1.279516e+10
1.279272e+10
1.279044e+10
1.278832e+10
1.278635e+10
1.278450e+10
1.278277e+10
1.278114e+10
1.277961e+10
1.277817e+10
1.277680e+10
1.277550e+10
1.277427e+10
1.277309e+10
1.277196e+10
1.277088e+10
1.276986e+10
1.276888e+10
1.276795e+10
1.276707e+10
1.276624e+10
1.276548e+10
1.276479e+10
1.276416e+10
1.276362e+10
1.276316e+10
1.276280e+10
1.276252e+10
1.276233e+10
1.276223e+10
1.276220e+10
1.276224e+10
1.276231e+10
1.276240e+10
1.276249e+10
1.276256e+10
1.276260e+10
1.154815e+10
1.154735e+10
1.154577e+10
1.154345e+10
1.154045e+10
1.153683e+10
1.153269e+10
1.152810e+10
1.152317e+10
1.151798e+10
1.151262e+10
1.150718e+10
1.150173e+10
1.149634e+10
1.149106e+10
1.148595e+10
1.148102e+10
1.147632e+10
1.147186e+10
1.146765e+10
1.146369e+10
1.145999e+10
1.145655e+10
1.145334e+10
1.145037e+10
1.144762e+10
1.144508e+10
1.144273e+10
1.144056e+10
1.143856e+10
1.143671e+10
1.143500e+10
1.143341e+10
1.143194e+10
1.143058e+10
1.142932e+10
1.142814e+10
1.142705e+10
1.142603e+10
1.142509e+10
1.142421e+10
1.142340e+10
1.142266e+10
1.142199e+10
1.142138e+10
1.142084e+10
1.142038e+10
1.142000e+10
1.141969e+10
1.141948e+10
1.141936e+10
1.141934e+10
1.141942e+10
1.141959e+10
1.141984e+10
1.142018e+10
1.142059e+10
1.142103e+10
1.142150e+10
1.142195e+10