<VTKFile type='UnstructuredGrid' version='0.1' byte_order='BigEndian'> 
<UnstructuredGrid> 
<Piece NumberOfPoints='12' NumberOfCells='6'> 
<Points> 
<DataArray type='Float32' NumberOfComponents='3' Format='ascii'> 
0.000000e+00 0.000000e+00 0.000000e+00 
3.333333e-01 0.000000e+00 0.000000e+00 
6.666667e-01 0.000000e+00 0.000000e+00 
1.000000e+00 0.000000e+00 0.000000e+00 
0.000000e+00 5.000000e-01 0.000000e+00 
3.333333e-01 5.000000e-01 0.000000e+00 
6.666667e-01 5.000000e-01 0.000000e+00 
1.000000e+00 5.000000e-01 0.000000e+00 
0.000000e+00 1.000000e+00 0.000000e+00 
3.333333e-01 1.000000e+00 0.000000e+00 
6.666667e-01 1.000000e+00 0.000000e+00 
1.000000e+00 1.000000e+00 0.000000e+00 
</DataArray>
</Points> 
<CellData Scalars='scalars'>
<DataArray type='Float32' Name='p' Format='ascii'> 
-1.333333e+00
-3.104414e-10
1.333333e+00
-1.333333e+00
8.278417e-17
1.333333e+00
</DataArray>
</CellData>
<PointData Scalars='scalars'>
<DataArray type='Float32' NumberOfComponents='3' Name='velocity' Format='ascii'> 
0.000000e+00 0.000000e+00 0.000000e+00 
0.000000e+00 0.000000e+00 0.000000e+00 
0.000000e+00 0.000000e+00 0.000000e+00 
0.000000e+00 0.000000e+00 0.000000e+00 
0.000000e+00 0.000000e+00 0.000000e+00 
8.888885e-08 -8.278405e-24 0.000000e+00 
8.888885e-08 1.655682e-23 0.000000e+00 
0.000000e+00 0.000000e+00 0.000000e+00 
1.000000e+00 0.000000e+00 0.000000e+00 
1.000000e+00 0.000000e+00 0.000000e+00 
1.000000e+00 0.000000e+00 0.000000e+00 
1.000000e+00 0.000000e+00 0.000000e+00 
</DataArray>
<DataArray type='Float32' NumberOfComponents='1' Name='q' Format='ascii'> 
-1.333333e+00 
-6.666664e-01 
6.666664e-01 
1.333333e+00 
-1.333333e+00 
-6.666664e-01 
6.666664e-01 
1.333333e+00 
-1.333333e+00 
-6.666664e-01 
6.666664e-01 
1.333333e+00 
</DataArray>
</PointData>
<Cells>
<DataArray type='Int32' Name='connectivity' Format='ascii'> 
0 1 5 4
1 2 6 5
2 3 7 6
4 5 9 8
5 6 10 9
6 7 11 10
</DataArray>
<DataArray type='Int32' Name='offsets' Format='ascii'> 
4 
8 
12 
16 
20 
24 
</DataArray>
<DataArray type='Int32' Name='types' Format='ascii'>
9 
9 
9 
9 
9 
9 
</DataArray>
</Cells>
</Piece>
</UnstructuredGrid>
</VTKFile>
