<VTKFile type='UnstructuredGrid' version='0.1' byte_order='BigEndian'> 
<UnstructuredGrid> 
<Piece NumberOfPoints='  1701 ' NumberOfCells='   400 '> 
<Points> 
<DataArray type='Float32' NumberOfComponents='3' Format='ascii'> 
0.000000e+00 0.000000e+00 0.000000e+00 
1.600000e+03 0.000000e+00 0.000000e+00 
3.200000e+03 0.000000e+00 0.000000e+00 
4.800000e+03 0.000000e+00 0.000000e+00 
6.400000e+03 0.000000e+00 0.000000e+00 
8.000000e+03 0.000000e+00 0.000000e+00 
9.600000e+03 0.000000e+00 0.000000e+00 
1.120000e+04 0.000000e+00 0.000000e+00 
1.280000e+04 0.000000e+00 0.000000e+00 
1.440000e+04 0.000000e+00 0.000000e+00 
1.600000e+04 0.000000e+00 0.000000e+00 
1.760000e+04 0.000000e+00 0.000000e+00 
1.920000e+04 0.000000e+00 0.000000e+00 
2.080000e+04 0.000000e+00 0.000000e+00 
2.240000e+04 0.000000e+00 0.000000e+00 
2.400000e+04 0.000000e+00 0.000000e+00 
2.560000e+04 0.000000e+00 0.000000e+00 
2.720000e+04 0.000000e+00 0.000000e+00 
2.880000e+04 0.000000e+00 0.000000e+00 
3.040000e+04 0.000000e+00 0.000000e+00 
3.200000e+04 0.000000e+00 0.000000e+00 
3.360000e+04 0.000000e+00 0.000000e+00 
3.520000e+04 0.000000e+00 0.000000e+00 
3.680000e+04 0.000000e+00 0.000000e+00 
3.840000e+04 0.000000e+00 0.000000e+00 
4.000000e+04 0.000000e+00 0.000000e+00 
4.160000e+04 0.000000e+00 0.000000e+00 
4.320000e+04 0.000000e+00 0.000000e+00 
4.480000e+04 0.000000e+00 0.000000e+00 
4.640000e+04 0.000000e+00 0.000000e+00 
4.800000e+04 0.000000e+00 0.000000e+00 
4.960000e+04 0.000000e+00 0.000000e+00 
5.120000e+04 0.000000e+00 0.000000e+00 
5.280000e+04 0.000000e+00 0.000000e+00 
5.440000e+04 0.000000e+00 0.000000e+00 
5.600000e+04 0.000000e+00 0.000000e+00 
5.760000e+04 0.000000e+00 0.000000e+00 
5.920000e+04 0.000000e+00 0.000000e+00 
6.080000e+04 0.000000e+00 0.000000e+00 
6.240000e+04 0.000000e+00 0.000000e+00 
6.400000e+04 0.000000e+00 0.000000e+00 
6.560000e+04 0.000000e+00 0.000000e+00 
6.720000e+04 0.000000e+00 0.000000e+00 
6.880000e+04 0.000000e+00 0.000000e+00 
7.040000e+04 0.000000e+00 0.000000e+00 
7.200000e+04 0.000000e+00 0.000000e+00 
7.360000e+04 0.000000e+00 0.000000e+00 
7.520000e+04 0.000000e+00 0.000000e+00 
7.680000e+04 0.000000e+00 0.000000e+00 
7.840000e+04 0.000000e+00 0.000000e+00 
8.000000e+04 0.000000e+00 0.000000e+00 
8.160000e+04 0.000000e+00 0.000000e+00 
8.320000e+04 0.000000e+00 0.000000e+00 
8.480000e+04 0.000000e+00 0.000000e+00 
8.640000e+04 0.000000e+00 0.000000e+00 
8.800000e+04 0.000000e+00 0.000000e+00 
8.960000e+04 0.000000e+00 0.000000e+00 
9.120000e+04 0.000000e+00 0.000000e+00 
9.280000e+04 0.000000e+00 0.000000e+00 
9.440000e+04 0.000000e+00 0.000000e+00 
9.600000e+04 0.000000e+00 0.000000e+00 
9.760000e+04 0.000000e+00 0.000000e+00 
9.920000e+04 0.000000e+00 0.000000e+00 
1.008000e+05 0.000000e+00 0.000000e+00 
1.024000e+05 0.000000e+00 0.000000e+00 
1.040000e+05 0.000000e+00 0.000000e+00 
1.056000e+05 0.000000e+00 0.000000e+00 
1.072000e+05 0.000000e+00 0.000000e+00 
1.088000e+05 0.000000e+00 0.000000e+00 
1.104000e+05 0.000000e+00 0.000000e+00 
1.120000e+05 0.000000e+00 0.000000e+00 
1.136000e+05 0.000000e+00 0.000000e+00 
1.152000e+05 0.000000e+00 0.000000e+00 
1.168000e+05 0.000000e+00 0.000000e+00 
1.184000e+05 0.000000e+00 0.000000e+00 
1.200000e+05 0.000000e+00 0.000000e+00 
1.216000e+05 0.000000e+00 0.000000e+00 
1.232000e+05 0.000000e+00 0.000000e+00 
1.248000e+05 0.000000e+00 0.000000e+00 
1.264000e+05 0.000000e+00 0.000000e+00 
1.280000e+05 0.000000e+00 0.000000e+00 
0.000000e+00 1.669869e+03 0.000000e+00 
1.600061e+03 1.669746e+03 0.000000e+00 
3.200121e+03 1.669376e+03 0.000000e+00 
4.800180e+03 1.668759e+03 0.000000e+00 
6.400236e+03 1.667893e+03 0.000000e+00 
8.000289e+03 1.666776e+03 0.000000e+00 
9.600339e+03 1.665406e+03 0.000000e+00 
1.120038e+04 1.663780e+03 0.000000e+00 
1.280042e+04 1.661895e+03 0.000000e+00 
1.440045e+04 1.659746e+03 0.000000e+00 
1.600048e+04 1.657332e+03 0.000000e+00 
1.760049e+04 1.654649e+03 0.000000e+00 
1.920050e+04 1.651694e+03 0.000000e+00 
2.080049e+04 1.648465e+03 0.000000e+00 
2.240048e+04 1.644960e+03 0.000000e+00 
2.400045e+04 1.641178e+03 0.000000e+00 
2.560041e+04 1.637121e+03 0.000000e+00 
2.720036e+04 1.632789e+03 0.000000e+00 
2.880030e+04 1.628189e+03 0.000000e+00 
3.040022e+04 1.623326e+03 0.000000e+00 
3.200013e+04 1.618209e+03 0.000000e+00 
3.360003e+04 1.612850e+03 0.000000e+00 
3.519993e+04 1.607266e+03 0.000000e+00 
3.679981e+04 1.601474e+03 0.000000e+00 
3.839969e+04 1.595497e+03 0.000000e+00 
3.999957e+04 1.589365e+03 0.000000e+00 
4.159945e+04 1.583107e+03 0.000000e+00 
4.319934e+04 1.576760e+03 0.000000e+00 
4.479923e+04 1.570366e+03 0.000000e+00 
4.639915e+04 1.563971e+03 0.000000e+00 
4.799908e+04 1.557624e+03 0.000000e+00 
4.959904e+04 1.551380e+03 0.000000e+00 
5.119903e+04 1.545296e+03 0.000000e+00 
5.279905e+04 1.539434e+03 0.000000e+00 
5.439911e+04 1.533853e+03 0.000000e+00 
5.599921e+04 1.528619e+03 0.000000e+00 
5.759935e+04 1.523793e+03 0.000000e+00 
5.919952e+04 1.519434e+03 0.000000e+00 
6.079974e+04 1.515601e+03 0.000000e+00 
6.239999e+04 1.512343e+03 0.000000e+00 
6.400027e+04 1.509707e+03 0.000000e+00 
6.560057e+04 1.507728e+03 0.000000e+00 
6.720088e+04 1.506434e+03 0.000000e+00 
6.880120e+04 1.505844e+03 0.000000e+00 
7.040152e+04 1.505964e+03 0.000000e+00 
7.200182e+04 1.506790e+03 0.000000e+00 
7.360210e+04 1.508308e+03 0.000000e+00 
7.520235e+04 1.510491e+03 0.000000e+00 
7.680256e+04 1.513307e+03 0.000000e+00 
7.840274e+04 1.516712e+03 0.000000e+00 
8.000287e+04 1.520655e+03 0.000000e+00 
8.160295e+04 1.525083e+03 0.000000e+00 
8.320299e+04 1.529936e+03 0.000000e+00 
8.480299e+04 1.535150e+03 0.000000e+00 
8.640295e+04 1.540664e+03 0.000000e+00 
8.800286e+04 1.546415e+03 0.000000e+00 
8.960275e+04 1.552339e+03 0.000000e+00 
9.120261e+04 1.558379e+03 0.000000e+00 
9.280245e+04 1.564477e+03 0.000000e+00 
9.440228e+04 1.570580e+03 0.000000e+00 
9.600209e+04 1.576639e+03 0.000000e+00 
9.760190e+04 1.582610e+03 0.000000e+00 
9.920171e+04 1.588451e+03 0.000000e+00 
1.008015e+05 1.594127e+03 0.000000e+00 
1.024013e+05 1.599605e+03 0.000000e+00 
1.040012e+05 1.604856e+03 0.000000e+00 
1.056010e+05 1.609856e+03 0.000000e+00 
1.072008e+05 1.614583e+03 0.000000e+00 
1.088007e+05 1.619019e+03 0.000000e+00 
1.104006e+05 1.623148e+03 0.000000e+00 
1.120005e+05 1.626956e+03 0.000000e+00 
1.136004e+05 1.630431e+03 0.000000e+00 
1.152003e+05 1.633564e+03 0.000000e+00 
1.168002e+05 1.636346e+03 0.000000e+00 
1.184002e+05 1.638771e+03 0.000000e+00 
1.200001e+05 1.640832e+03 0.000000e+00 
1.216001e+05 1.642525e+03 0.000000e+00 
1.232001e+05 1.643845e+03 0.000000e+00 
1.248000e+05 1.644791e+03 0.000000e+00 
1.264000e+05 1.645359e+03 0.000000e+00 
1.280000e+05 1.645548e+03 0.000000e+00 
0.000000e+00 3.339994e+03 0.000000e+00 
1.600123e+03 3.339748e+03 0.000000e+00 
3.200244e+03 3.339010e+03 0.000000e+00 
4.800362e+03 3.337778e+03 0.000000e+00 
6.400476e+03 3.336048e+03 0.000000e+00 
8.000583e+03 3.333817e+03 0.000000e+00 
9.600682e+03 3.331080e+03 0.000000e+00 
1.120077e+04 3.327831e+03 0.000000e+00 
1.280085e+04 3.324063e+03 0.000000e+00 
1.440091e+04 3.319771e+03 0.000000e+00 
1.600096e+04 3.314947e+03 0.000000e+00 
1.760099e+04 3.309584e+03 0.000000e+00 
1.920101e+04 3.303677e+03 0.000000e+00 
2.080100e+04 3.297220e+03 0.000000e+00 
2.240097e+04 3.290211e+03 0.000000e+00 
2.400092e+04 3.282648e+03 0.000000e+00 
2.560084e+04 3.274531e+03 0.000000e+00 
2.720074e+04 3.265866e+03 0.000000e+00 
2.880061e+04 3.256659e+03 0.000000e+00 
3.040046e+04 3.246925e+03 0.000000e+00 
3.200028e+04 3.236680e+03 0.000000e+00 
3.360008e+04 3.225948e+03 0.000000e+00 
3.519986e+04 3.214760e+03 0.000000e+00 
3.679963e+04 3.203154e+03 0.000000e+00 
3.839939e+04 3.191176e+03 0.000000e+00 
3.999914e+04 3.178879e+03 0.000000e+00 
4.159889e+04 3.166328e+03 0.000000e+00 
4.319866e+04 3.153594e+03 0.000000e+00 
4.479845e+04 3.140762e+03 0.000000e+00 
4.639827e+04 3.127922e+03 0.000000e+00 
4.799813e+04 3.115175e+03 0.000000e+00 
4.959805e+04 3.102630e+03 0.000000e+00 
5.119802e+04 3.090403e+03 0.000000e+00 
5.279806e+04 3.078616e+03 0.000000e+00 
5.439818e+04 3.067394e+03 0.000000e+00 
5.599837e+04 3.056863e+03 0.000000e+00 
5.759865e+04 3.047151e+03 0.000000e+00 
5.919901e+04 3.038379e+03 0.000000e+00 
6.079945e+04 3.030660e+03 0.000000e+00 
6.239996e+04 3.024101e+03 0.000000e+00 
6.400052e+04 3.018792e+03 0.000000e+00 
6.560113e+04 3.014807e+03 0.000000e+00 
6.720177e+04 3.012203e+03 0.000000e+00 
6.880241e+04 3.011016e+03 0.000000e+00 
7.040305e+04 3.011260e+03 0.000000e+00 
7.200366e+04 3.012928e+03 0.000000e+00 
7.360423e+04 3.015987e+03 0.000000e+00 
7.520473e+04 3.020389e+03 0.000000e+00 
7.680517e+04 3.026063e+03 0.000000e+00 
7.840552e+04 3.032922e+03 0.000000e+00 
8.000578e+04 3.040865e+03 0.000000e+00 
8.160595e+04 3.049780e+03 0.000000e+00 
8.320603e+04 3.059545e+03 0.000000e+00 
8.480602e+04 3.070037e+03 0.000000e+00 
8.640592e+04 3.081127e+03 0.000000e+00 
8.800576e+04 3.092688e+03 0.000000e+00 
8.960553e+04 3.104596e+03 0.000000e+00 
9.120525e+04 3.116730e+03 0.000000e+00 
9.280492e+04 3.128978e+03 0.000000e+00 
9.440457e+04 3.141232e+03 0.000000e+00 
9.600419e+04 3.153394e+03 0.000000e+00 
9.760380e+04 3.165375e+03 0.000000e+00 
9.920341e+04 3.177093e+03 0.000000e+00 
1.008030e+05 3.188476e+03 0.000000e+00 
1.024027e+05 3.199458e+03 0.000000e+00 
1.040023e+05 3.209985e+03 0.000000e+00 
1.056020e+05 3.220005e+03 0.000000e+00 
1.072017e+05 3.229477e+03 0.000000e+00 
1.088014e+05 3.238364e+03 0.000000e+00 
1.104012e+05 3.246634e+03 0.000000e+00 
1.120009e+05 3.254260e+03 0.000000e+00 
1.136008e+05 3.261220e+03 0.000000e+00 
1.152006e+05 3.267494e+03 0.000000e+00 
1.168005e+05 3.273065e+03 0.000000e+00 
1.184003e+05 3.277920e+03 0.000000e+00 
1.200003e+05 3.282047e+03 0.000000e+00 
1.216002e+05 3.285436e+03 0.000000e+00 
1.232001e+05 3.288080e+03 0.000000e+00 
1.248001e+05 3.289973e+03 0.000000e+00 
1.264000e+05 3.291110e+03 0.000000e+00 
1.280000e+05 3.291489e+03 0.000000e+00 
0.000000e+00 5.010631e+03 0.000000e+00 
[...]
<CellData Scalars='scalars'>
<DataArray type='Float32' Name='volume' Format='ascii'> 
1.068734e+07 
1.068101e+07 
1.066829e+07 
1.064906e+07 
1.062317e+07 
1.059046e+07 
1.055075e+07 
1.050397e+07 
1.045011e+07 
1.038936e+07 
1.032212e+07 
1.024913e+07 
1.017149e+07 
1.009074e+07 
1.000889e+07 
9.928390e+06 
9.852097e+06 
9.783110e+06 
9.724571e+06 
9.679397e+06 
9.649983e+06 
9.637933e+06 
9.643860e+06 
9.667308e+06 
9.706812e+06 
9.760072e+06 
9.824224e+06 
9.896119e+06 
9.972598e+06 
1.005070e+07 
1.012780e+07 
1.020168e+07 
1.027057e+07 
1.033307e+07 
1.038812e+07 
1.043496e+07 
1.047302e+07 
1.050188e+07 
1.052128e+07 
1.053102e+07 
1.069473e+07 
1.068843e+07 
1.067575e+07 
1.065657e+07 
1.063070e+07 
1.059795e+07 
1.055812e+07 
1.051107e+07 
1.045675e+07 
1.039531e+07 
1.032713e+07 
1.025290e+07 
1.017372e+07 
1.009116e+07 
1.000726e+07 
9.924566e+06 
9.846031e+06 
9.774884e+06 
9.714412e+06 
9.667671e+06 
9.637183e+06 
9.624642e+06 
9.630704e+06 
9.654901e+06 
9.695703e+06 
9.750707e+06 
9.816911e+06 
9.891029e+06 
9.969765e+06 
1.005005e+07 
1.012916e+07 
1.020486e+07 
1.027531e+07 
1.033913e+07 
1.039529e+07 
1.044303e+07 
1.048179e+07 
1.051120e+07 
1.053096e+07 
1.054088e+07 
1.070869e+07 
1.070249e+07 
1.069000e+07 
1.067107e+07 
1.064546e+07 
1.061291e+07 
1.057313e+07 
1.052589e+07 
1.047104e+07 
1.040859e+07 
1.033880e+07 
1.026228e+07 
1.018006e+07 
1.009366e+07 
1.000521e+07 
9.917392e+06 
9.833410e+06 
9.756846e+06 
9.691409e+06 
9.640611e+06 
9.607382e+06 
9.593714e+06 
9.600387e+06 
9.626860e+06 
9.671348e+06 
9.731067e+06 
9.802578e+06 
9.882172e+06 
9.966196e+06 
1.005132e+07 
1.013467e+07 
1.021392e+07 
1.028729e+07 
1.035343e+07 
1.041140e+07 
1.046054e+07 
1.050038e+07 
1.053059e+07 
1.055088e+07 
1.056109e+07 
1.072912e+07 
1.072312e+07 
1.071101e+07 
1.069258e+07 
1.066753e+07 
1.063549e+07 
1.059606e+07 
1.054883e+07 
1.049349e+07 
1.042983e+07 
1.035792e+07 
1.027814e+07 
1.019139e+07 
1.009911e+07 
1.000347e+07 
9.907371e+06 
9.814407e+06 
9.728759e+06 
9.654892e+06 
9.597145e+06 
9.559222e+06 
9.543675e+06 
9.551514e+06 
9.582045e+06 
9.632982e+06 
9.700814e+06 
9.781293e+06 
9.869952e+06 
9.962533e+06 
1.005529e+07 
1.014513e+07 
1.022967e+07 
1.030720e+07 
1.037654e+07 
1.043693e+07 
1.048789e+07 
1.052913e+07 
1.056038e+07 
1.058140e+07 
1.059198e+07 
1.075586e+07 
1.075018e+07 
1.073867e+07 
1.072106e+07 
1.069697e+07 
1.066590e+07 
1.062727e+07 
1.058046e+07 
1.052489e+07 
1.046006e+07 
1.038570e+07 
1.030190e+07 
1.020925e+07 
1.010903e+07 
1.000341e+07 
9.895510e+06 
9.789476e+06 
9.690360e+06 
9.603799e+06 
9.535469e+06 
9.490355e+06 
9.471961e+06 
9.481684e+06 
9.518552e+06 
9.579420e+06 
9.659548e+06 
9.753375e+06 
9.855254e+06 
9.960029e+06 
1.006338e+07 
1.016198e+07 
1.025343e+07 
1.033620e+07 
1.040940e+07 
1.047260e+07 
1.052565e+07 
1.056848e+07 
1.060100e+07 
1.062296e+07 
1.063407e+07 
1.078862e+07 
1.078339e+07 
1.077277e+07 
1.075641e+07 
1.073383e+07 
1.070436e+07 
1.066721e+07 
1.062150e+07 
1.056628e+07 
1.050066e+07 
1.042391e+07 
1.033562e+07 
1.023594e+07 
1.012580e+07 
1.000724e+07 
9.883559e+06 
9.759571e+06 
9.641509e+06 
9.536719e+06 
9.452942e+06 
9.397230e+06 
9.374663e+06 
9.387282e+06 
9.433626e+06 
9.509099e+06 
9.606972e+06 
9.719633e+06 
9.839700e+06 
9.960787e+06 
1.007788e+07 
1.018742e+07 
1.028716e+07 
1.037590e+07 
1.045326e+07 
1.051932e+07 
1.057442e+07 
1.061891e+07 
1.065291e+07 
1.067616e+07 
1.068807e+07 
1.082695e+07 
1.082237e+07 
1.081299e+07 
1.079842e+07 
1.077803e+07 
1.075101e+07 
1.071632e+07 
1.067274e+07 
1.061890e+07 
1.055338e+07 
1.047482e+07 
1.038211e+07 
1.027470e+07 
1.015290e+07 
1.001835e+07 
9.874407e+06 
9.726543e+06 
9.582493e+06 
9.452005e+06 
9.345964e+06 
9.274752e+06 
9.246105e+06 
9.263144e+06 
9.323540e+06 
9.420219e+06 
9.543216e+06 
9.681784e+06 
9.826078e+06 
9.968131e+06 
1.010219e+07 
1.022462e+07 
1.033355e+07 
1.042844e+07 
1.050965e+07 
1.057808e+07 
1.063479e+07 
1.068073e+07 
1.071644e+07 
1.074168e+07 
1.075510e+07 
1.087024e+07 
1.086651e+07 
1.085881e+07 
1.084667e+07 
1.082937e+07 
1.080590e+07 
1.077498e+07 
1.073502e+07 
1.068416e+07 
1.062030e+07 
1.054127e+07 
1.044501e+07 
1.032990e+07 
1.019524e+07 
1.004183e+07 
9.872694e+06 
9.693798e+06 
9.514597e+06 
9.348083e+06 
9.209859e+06 
9.115775e+06 
9.078173e+06 
9.102085e+06 
9.183537e+06 
9.311097e+06 
9.469475e+06 
9.643184e+06 
9.819018e+06 
9.987152e+06 
1.014124e+07 
1.027792e+07 
1.039615e+07 
1.049647e+07 
1.058039e+07 
1.064991e+07 
1.070710e+07 
1.075382e+07 
1.079145e+07 
1.082018e+07 
1.083729e+07 
1.091764e+07 
1.091500e+07 
1.090947e+07 
1.090053e+07 
1.088737e+07 
1.086884e+07 
1.084339e+07 
1.080907e+07 
1.076345e+07 
1.070369e+07 
1.062659e+07 
1.052882e+07 
1.040726e+07 
1.025959e+07 
1.008508e+07 
9.885698e+06 
9.667362e+06 
9.441159e+06 
9.224155e+06 
9.038903e+06 
8.910362e+06 
8.859292e+06 
8.894266e+06 
9.007994e+06 
9.181026e+06 
9.389211e+06 
9.610040e+06 
9.826007e+06 
1.002545e+07 
1.020194e+07 
1.035313e+07 
1.047946e+07 
1.058316e+07 
1.066739e+07 
1.073566e+07 
1.079133e+07 
1.083734e+07 
1.087639e+07 
1.091122e+07 
1.093949e+07 
1.096805e+07 
1.096676e+07 
1.096394e+07 
1.095905e+07 
1.095125e+07 
1.093927e+07 
1.092139e+07 
1.089529e+07 
1.085802e+07 
1.080588e+07 
1.073449e+07 
1.063892e+07 
1.051399e+07 
1.035498e+07 
1.015862e+07 
9.924583e+06 
9.657544e+06 
9.369442e+06 
9.081784e+06 
8.826807e+06 
8.644798e+06 
8.572847e+06 
8.626580e+06 
8.791326e+06 
9.032213e+06 
9.310351e+06 
9.593334e+06 
9.858824e+06 
1.009405e+07 
1.029372e+07 
1.045768e+07 
1.058891e+07 
1.069208e+07 
1.077257e+07 
1.083599e+07 
1.088759e+07 
1.093116e+07 
1.096979e+07 
1.101215e+07 
1.108197e+07 
</DataArray>
</CellData>
<PointData Scalars='scalars'>
<DataArray type='Float32' NumberOfComponents='3' Name='velocity (cm/year)' Format='ascii'> 
0.000000e+00 5.000000e-01 0.000000e+00 
0.000000e+00 5.000000e-01 0.000000e+00 
0.000000e+00 5.000000e-01 0.000000e+00 
0.000000e+00 5.000000e-01 0.000000e+00 
0.000000e+00 5.000000e-01 0.000000e+00 
0.000000e+00 5.000000e-01 0.000000e+00 
0.000000e+00 5.000000e-01 0.000000e+00 
0.000000e+00 5.000000e-01 0.000000e+00 
0.000000e+00 5.000000e-01 0.000000e+00 
0.000000e+00 5.000000e-01 0.000000e+00 
0.000000e+00 5.000000e-01 0.000000e+00 
0.000000e+00 5.000000e-01 0.000000e+00 
0.000000e+00 5.000000e-01 0.000000e+00 
0.000000e+00 5.000000e-01 0.000000e+00 
0.000000e+00 5.000000e-01 0.000000e+00 
0.000000e+00 5.000000e-01 0.000000e+00 
0.000000e+00 5.000000e-01 0.000000e+00 
0.000000e+00 5.000000e-01 0.000000e+00 
0.000000e+00 5.000000e-01 0.000000e+00 
0.000000e+00 5.000000e-01 0.000000e+00 
0.000000e+00 5.000000e-01 0.000000e+00 
0.000000e+00 5.000000e-01 0.000000e+00 
0.000000e+00 5.000000e-01 0.000000e+00 
0.000000e+00 5.000000e-01 0.000000e+00 
0.000000e+00 5.000000e-01 0.000000e+00 
0.000000e+00 5.000000e-01 0.000000e+00 
0.000000e+00 5.000000e-01 0.000000e+00 
0.000000e+00 5.000000e-01 0.000000e+00 
0.000000e+00 5.000000e-01 0.000000e+00 
0.000000e+00 5.000000e-01 0.000000e+00 
0.000000e+00 5.000000e-01 0.000000e+00 
0.000000e+00 5.000000e-01 0.000000e+00 
0.000000e+00 5.000000e-01 0.000000e+00 
0.000000e+00 5.000000e-01 0.000000e+00 
0.000000e+00 5.000000e-01 0.000000e+00 
0.000000e+00 5.000000e-01 0.000000e+00 
0.000000e+00 5.000000e-01 0.000000e+00 
0.000000e+00 5.000000e-01 0.000000e+00 
0.000000e+00 5.000000e-01 0.000000e+00 
0.000000e+00 5.000000e-01 0.000000e+00 
0.000000e+00 5.000000e-01 0.000000e+00 
2.000000e+00 5.000000e-01 0.000000e+00 
2.000000e+00 5.000000e-01 0.000000e+00 
2.000000e+00 5.000000e-01 0.000000e+00 
2.000000e+00 5.000000e-01 0.000000e+00 
2.000000e+00 5.000000e-01 0.000000e+00 
2.000000e+00 5.000000e-01 0.000000e+00 
2.000000e+00 5.000000e-01 0.000000e+00 
2.000000e+00 5.000000e-01 0.000000e+00 
2.000000e+00 5.000000e-01 0.000000e+00 
2.000000e+00 5.000000e-01 0.000000e+00 
2.000000e+00 5.000000e-01 0.000000e+00 
2.000000e+00 5.000000e-01 0.000000e+00 
2.000000e+00 5.000000e-01 0.000000e+00 
2.000000e+00 5.000000e-01 0.000000e+00 
2.000000e+00 5.000000e-01 0.000000e+00 
2.000000e+00 5.000000e-01 0.000000e+00 
2.000000e+00 5.000000e-01 0.000000e+00 
2.000000e+00 5.000000e-01 0.000000e+00 
2.000000e+00 5.000000e-01 0.000000e+00 
2.000000e+00 5.000000e-01 0.000000e+00 
2.000000e+00 5.000000e-01 0.000000e+00 
2.000000e+00 5.000000e-01 0.000000e+00 
2.000000e+00 5.000000e-01 0.000000e+00 
2.000000e+00 5.000000e-01 0.000000e+00 
2.000000e+00 5.000000e-01 0.000000e+00 
2.000000e+00 5.000000e-01 0.000000e+00 
2.000000e+00 5.000000e-01 0.000000e+00 
2.000000e+00 5.000000e-01 0.000000e+00 
2.000000e+00 5.000000e-01 0.000000e+00 
2.000000e+00 5.000000e-01 0.000000e+00 
2.000000e+00 5.000000e-01 0.000000e+00 
2.000000e+00 5.000000e-01 0.000000e+00 
2.000000e+00 5.000000e-01 0.000000e+00 
2.000000e+00 5.000000e-01 0.000000e+00 
2.000000e+00 5.000000e-01 0.000000e+00 
2.000000e+00 5.000000e-01 0.000000e+00 
2.000000e+00 5.000000e-01 0.000000e+00 
2.000000e+00 5.000000e-01 0.000000e+00 
2.000000e+00 5.000000e-01 0.000000e+00 
2.000000e+00 5.000000e-01 0.000000e+00 
0.000000e+00 4.988488e-01 0.000000e+00 
2.200043e-03 4.988482e-01 0.000000e+00 
4.402132e-03 4.988463e-01 0.000000e+00 
6.608661e-03 4.988432e-01 0.000000e+00 
8.821713e-03 4.988385e-01 0.000000e+00 
1.104441e-02 4.988323e-01 0.000000e+00 
1.327931e-02 4.988240e-01 0.000000e+00 
1.553069e-02 4.988138e-01 0.000000e+00 
1.780209e-02 4.988006e-01 0.000000e+00 
2.009946e-02 4.987848e-01 0.000000e+00 
2.242799e-02 4.987647e-01 0.000000e+00 
2.479595e-02 4.987411e-01 0.000000e+00 
2.721110e-02 4.987114e-01 0.000000e+00 
2.968487e-02 4.986768e-01 0.000000e+00 
3.222886e-02 4.986335e-01 0.000000e+00 
3.485876e-02 4.985833e-01 0.000000e+00 
3.759164e-02 4.985209e-01 0.000000e+00 
4.044921e-02 4.984494e-01 0.000000e+00 
4.345704e-02 4.983602e-01 0.000000e+00 
4.664449e-02 4.982569e-01 0.000000e+00 
5.004792e-02 4.981297e-01 0.000000e+00 
5.371024e-02 4.979872e-01 0.000000e+00 
5.769021e-02 4.978060e-01 0.000000e+00 
6.204210e-02 4.975876e-01 0.000000e+00 
6.683943e-02 4.973247e-01 0.000000e+00 
7.218672e-02 4.970566e-01 0.000000e+00 
7.825540e-02 4.966746e-01 0.000000e+00 
8.512291e-02 4.961094e-01 0.000000e+00 
9.288350e-02 4.955031e-01 0.000000e+00 
1.019787e-01 4.951760e-01 0.000000e+00 
1.132757e-01 4.942508e-01 0.000000e+00 
1.264606e-01 4.917696e-01 0.000000e+00 
1.408112e-01 4.898460e-01 0.000000e+00 
1.599197e-01 4.918054e-01 0.000000e+00 
1.915022e-01 4.885445e-01 0.000000e+00 
2.281822e-01 4.687847e-01 0.000000e+00 
2.568093e-01 4.567976e-01 0.000000e+00 
3.192822e-01 4.885159e-01 0.000000e+00 
5.142891e-01 4.541479e-01 0.000000e+00 
7.337524e-01 2.155828e-01 0.000000e+00 
9.173231e-01 -9.348209e-02 0.000000e+00 
1.095488e+00 5.493482e-02 0.000000e+00 
1.438771e+00 3.869460e-01 0.000000e+00 
1.604769e+00 4.429425e-01 0.000000e+00 
1.696411e+00 4.574118e-01 0.000000e+00 
1.761694e+00 4.722281e-01 0.000000e+00 
1.804025e+00 4.834795e-01 0.000000e+00 
1.834155e+00 4.880825e-01 0.000000e+00 
1.856497e+00 4.898579e-01 0.000000e+00 
1.874160e+00 4.921189e-01 0.000000e+00 
1.888097e+00 4.939181e-01 0.000000e+00 
1.899387e+00 4.950326e-01 0.000000e+00 
1.908637e+00 4.957262e-01 0.000000e+00 
1.916415e+00 4.963947e-01 0.000000e+00 
1.923011e+00 4.969142e-01 0.000000e+00 
1.928693e+00 4.973194e-01 0.000000e+00 
1.933636e+00 4.976136e-01 0.000000e+00 
1.938010e+00 4.978712e-01 0.000000e+00 
1.941926e+00 4.980674e-01 0.000000e+00 
1.945484e+00 4.982299e-01 0.000000e+00 
1.948756e+00 4.983501e-01 0.000000e+00 
1.951806e+00 4.984512e-01 0.000000e+00 
1.954686e+00 4.985254e-01 0.000000e+00 
1.957433e+00 4.985858e-01 0.000000e+00 
1.960084e+00 4.986284e-01 0.000000e+00 
1.962660e+00 4.986623e-01 0.000000e+00 
1.965187e+00 4.986847e-01 0.000000e+00 
1.967679e+00 4.987014e-01 0.000000e+00 
1.970150e+00 4.987110e-01 0.000000e+00 
1.972608e+00 4.987169e-01 0.000000e+00 
1.975064e+00 4.987189e-01 0.000000e+00 
1.977521e+00 4.987186e-01 0.000000e+00 
1.979985e+00 4.987165e-01 0.000000e+00 
1.982456e+00 4.987131e-01 0.000000e+00 
1.984938e+00 4.987094e-01 0.000000e+00 
1.987429e+00 4.987052e-01 0.000000e+00 
1.989930e+00 4.987016e-01 0.000000e+00 
1.992439e+00 4.986981e-01 0.000000e+00 
1.994955e+00 4.986959e-01 0.000000e+00 
1.997476e+00 4.986940e-01 0.000000e+00 
2.000000e+00 4.986938e-01 0.000000e+00 
0.000000e+00 4.954214e-01 0.000000e+00 
4.361992e-03 4.954188e-01 0.000000e+00 
8.728587e-03 4.954109e-01 0.000000e+00 
1.310470e-02 4.953975e-01 0.000000e+00 
1.749537e-02 4.953778e-01 0.000000e+00 
2.190656e-02 4.953516e-01 0.000000e+00 
2.634453e-02 4.953172e-01 0.000000e+00 
3.081714e-02 4.952742e-01 0.000000e+00 
3.533288e-02 4.952202e-01 0.000000e+00 
3.990246e-02 4.951543e-01 0.000000e+00 
4.453783e-02 4.950732e-01 0.000000e+00 
4.925386e-02 4.949755e-01 0.000000e+00 
5.406761e-02 4.948566e-01 0.000000e+00 
5.899973e-02 4.947146e-01 0.000000e+00 
6.407465e-02 4.945428e-01 0.000000e+00 
6.932105e-02 4.943389e-01 0.000000e+00 
7.477402e-02 4.940934e-01 0.000000e+00 
8.047329e-02 4.938033e-01 0.000000e+00 
8.646875e-02 4.934548e-01 0.000000e+00 
9.281599e-02 4.930436e-01 0.000000e+00 
9.958809e-02 4.925509e-01 0.000000e+00 
1.068625e-01 4.919704e-01 0.000000e+00 
1.147416e-01 4.912704e-01 0.000000e+00 
1.233383e-01 4.904396e-01 0.000000e+00 
1.328192e-01 4.894418e-01 0.000000e+00 
1.433453e-01 4.882580e-01 0.000000e+00 
1.551317e-01 4.867836e-01 0.000000e+00 
1.684409e-01 4.849717e-01 0.000000e+00 
1.837647e-01 4.827897e-01 0.000000e+00 
2.015128e-01 4.801605e-01 0.000000e+00 
2.221160e-01 4.764685e-01 0.000000e+00 
2.462889e-01 4.713987e-01 0.000000e+00 
2.762783e-01 4.655721e-01 0.000000e+00 
3.138748e-01 4.584965e-01 0.000000e+00 
3.596057e-01 4.445696e-01 0.000000e+00 
4.144477e-01 4.203355e-01 0.000000e+00 
4.926835e-01 3.966997e-01 0.000000e+00 
6.117812e-01 3.646699e-01 0.000000e+00 
7.621889e-01 2.685814e-01 0.000000e+00 
9.166463e-01 2.883549e-02 0.000000e+00 
9.333410e-01 -1.333660e-01 0.000000e+00 
1.073470e+00 -5.989738e-02 0.000000e+00 
1.148266e+00 1.323641e-01 0.000000e+00 
1.317013e+00 2.974612e-01 0.000000e+00 
1.453723e+00 3.672194e-01 0.000000e+00 
1.559077e+00 4.100787e-01 0.000000e+00 
1.628231e+00 4.360199e-01 0.000000e+00 
1.679566e+00 4.524117e-01 0.000000e+00 
1.720780e+00 4.629027e-01 0.000000e+00 
1.753961e+00 4.705206e-01 0.000000e+00 
1.780021e+00 4.761168e-01 0.000000e+00 
1.801387e+00 4.802868e-01 0.000000e+00 
1.819279e+00 4.833910e-01 0.000000e+00 
1.834435e+00 4.858493e-01 0.000000e+00 
1.847317e+00 4.877736e-01 0.000000e+00 
1.858478e+00 4.893126e-01 0.000000e+00 
1.868262e+00 4.905213e-01 0.000000e+00 
1.876954e+00 4.915015e-01 0.000000e+00 
1.884758e+00 4.922775e-01 0.000000e+00 
1.891866e+00 4.929044e-01 0.000000e+00 
1.898417e+00 4.933961e-01 0.000000e+00 
1.904532e+00 4.937900e-01 0.000000e+00 
1.910304e+00 4.940947e-01 0.000000e+00 
1.915811e+00 4.943342e-01 0.000000e+00 
1.921116e+00 4.945144e-01 0.000000e+00 
1.926270e+00 4.946516e-01 0.000000e+00 
1.931313e+00 4.947503e-01 0.000000e+00 
1.936278e+00 4.948211e-01 0.000000e+00 
1.941192e+00 4.948674e-01 0.000000e+00 
1.946073e+00 4.948964e-01 0.000000e+00 
1.950939e+00 4.949108e-01 0.000000e+00 
1.955799e+00 4.949151e-01 0.000000e+00 
1.960664e+00 4.949117e-01 0.000000e+00 
1.965537e+00 4.949033e-01 0.000000e+00 
1.970423e+00 4.948920e-01 0.000000e+00 
1.975324e+00 4.948795e-01 0.000000e+00 
1.980239e+00 4.948674e-01 0.000000e+00 
1.985166e+00 4.948565e-01 0.000000e+00 
1.990105e+00 4.948484e-01 0.000000e+00 
1.995050e+00 4.948430e-01 0.000000e+00 
2.000000e+00 4.948414e-01 0.000000e+00 
0.000000e+00 4.897587e-01 0.000000e+00 
6.478599e-03 4.897527e-01 0.000000e+00 
1.296455e-02 4.897340e-01 0.000000e+00 
1.946558e-02 4.897025e-01 0.000000e+00 
2.598971e-02 4.896566e-01 0.000000e+00 
3.254608e-02 4.895951e-01 0.000000e+00 
3.914454e-02 4.895155e-01 0.000000e+00 
4.579682e-02 4.894156e-01 0.000000e+00 
5.251594e-02 4.892915e-01 0.000000e+00 
5.931760e-02 4.891399e-01 0.000000e+00 
6.621977e-02 4.889551e-01 0.000000e+00 
7.324386e-02 4.887326e-01 0.000000e+00 
8.041506e-02 4.884640e-01 0.000000e+00 
8.776282e-02 4.881432e-01 0.000000e+00 
9.532262e-02 4.877585e-01 0.000000e+00 
1.031350e-01 4.873017e-01 0.000000e+00 
1.112502e-01 4.867563e-01 0.000000e+00 
1.197240e-01 4.861108e-01 0.000000e+00 
1.286273e-01 4.853424e-01 0.000000e+00 
1.380374e-01 4.844349e-01 0.000000e+00 
1.480559e-01 4.833552e-01 0.000000e+00 
1.587897e-01 4.820783e-01 0.000000e+00 
1.703823e-01 4.805571e-01 0.000000e+00 
1.829888e-01 4.787560e-01 0.000000e+00 
1.968275e-01 4.765966e-01 0.000000e+00 
2.121115e-01 4.740059e-01 0.000000e+00 
2.291461e-01 4.708706e-01 0.000000e+00 
2.482887e-01 4.671004e-01 0.000000e+00 
2.701050e-01 4.624419e-01 0.000000e+00 
2.950412e-01 4.565608e-01 0.000000e+00 
3.237707e-01 4.491206e-01 0.000000e+00 
3.573683e-01 4.398879e-01 0.000000e+00 
3.979051e-01 4.276806e-01 0.000000e+00 
4.462076e-01 4.101941e-01 0.000000e+00 
5.031904e-01 3.859020e-01 0.000000e+00 
5.724978e-01 3.544782e-01 0.000000e+00 
6.639804e-01 3.088521e-01 0.000000e+00 
7.743011e-01 2.299468e-01 0.000000e+00 
8.866925e-01 1.066134e-01 0.000000e+00 
9.677421e-01 -3.476189e-02 0.000000e+00 
1.006151e+00 -1.285527e-01 0.000000e+00 
1.029764e+00 -1.043076e-01 0.000000e+00 
1.089508e+00 1.400855e-02 0.000000e+00 
1.179249e+00 1.548266e-01 0.000000e+00 
1.297236e+00 2.659582e-01 0.000000e+00 
1.402003e+00 3.300415e-01 0.000000e+00 
1.482947e+00 3.716646e-01 0.000000e+00 
1.547315e+00 4.011685e-01 0.000000e+00 
1.600205e+00 4.225383e-01 0.000000e+00 
1.643937e+00 4.375716e-01 0.000000e+00 
1.679570e+00 4.486004e-01 0.000000e+00 
1.709317e+00 4.571375e-01 0.000000e+00 
1.734460e+00 4.637596e-01 0.000000e+00 
1.755990e+00 4.689347e-01 0.000000e+00 
1.774510e+00 4.730110e-01 0.000000e+00 
1.790685e+00 4.762927e-01 0.000000e+00 
1.804952e+00 4.789173e-01 0.000000e+00 
1.817703e+00 4.810341e-01 0.000000e+00 
1.829210e+00 4.827276e-01 0.000000e+00 
1.839734e+00 4.840947e-01 0.000000e+00 
1.849463e+00 4.851826e-01 0.000000e+00 
1.858566e+00 4.860519e-01 0.000000e+00 
1.867170e+00 4.867343e-01 0.000000e+00 
1.875386e+00 4.872706e-01 0.000000e+00 
1.883302e+00 4.876821e-01 0.000000e+00 
1.890989e+00 4.879965e-01 0.000000e+00 
1.898505e+00 4.882285e-01 0.000000e+00 
1.905897e+00 4.883972e-01 0.000000e+00 
1.913203e+00 4.885131e-01 0.000000e+00 
1.920452e+00 4.885891e-01 0.000000e+00 
1.927666e+00 4.886328e-01 0.000000e+00 
1.934864e+00 4.886529e-01 0.000000e+00 
1.942058e+00 4.886553e-01 0.000000e+00 
1.949256e+00 4.886457e-01 0.000000e+00 
1.956466e+00 4.886285e-01 0.000000e+00 
1.963690e+00 4.886076e-01 0.000000e+00 
1.970929e+00 4.885862e-01 0.000000e+00 
1.978182e+00 4.885668e-01 0.000000e+00 
1.985448e+00 4.885516e-01 0.000000e+00 
1.992722e+00 4.885417e-01 0.000000e+00 
2.000000e+00 4.885386e-01 0.000000e+00 
0.000000e+00 4.819111e-01 0.000000e+00 
8.541839e-03 4.818999e-01 0.000000e+00 
1.709383e-02 4.818659e-01 0.000000e+00 
2.566649e-02 4.818081e-01 0.000000e+00 
3.427088e-02 4.817242e-01 0.000000e+00 
4.291920e-02 4.816122e-01 0.000000e+00 
5.162482e-02 4.814677e-01 0.000000e+00 
6.040302e-02 4.812869e-01 0.000000e+00 
6.927119e-02 4.810634e-01 0.000000e+00 
7.824938e-02 4.807913e-01 0.000000e+00 
8.736110e-02 4.804613e-01 0.000000e+00 
9.663330e-02 4.800650e-01 0.000000e+00 
1.060984e-01 4.795895e-01 0.000000e+00 
1.157929e-01 4.790229e-01 0.000000e+00 
1.257619e-01 4.783474e-01 0.000000e+00 
1.360552e-01 4.775467e-01 0.000000e+00 
1.467356e-01 4.765963e-01 0.000000e+00 
1.578711e-01 4.754733e-01 0.000000e+00 
1.695492e-01 4.741439e-01 0.000000e+00 
1.818633e-01 4.725760e-01 0.000000e+00 
1.949359e-01 4.707212e-01 0.000000e+00 
2.088954e-01 4.685326e-01 0.000000e+00 
2.239154e-01 4.659405e-01 0.000000e+00 
2.401751e-01 4.628740e-01 0.000000e+00 
2.579210e-01 4.592230e-01 0.000000e+00 
2.774049e-01 4.548688e-01 0.000000e+00 
2.989941e-01 4.496443e-01 0.000000e+00 
3.230536e-01 4.433519e-01 0.000000e+00 
3.501166e-01 4.356663e-01 0.000000e+00 
3.807050e-01 4.261760e-01 0.000000e+00 