<VTKFile type='UnstructuredGrid' version='0.1' byte_order='BigEndian'> 
<UnstructuredGrid> 
<Piece NumberOfPoints='  3791 ' NumberOfCells='  3568 '> 
<Points> 
<DataArray type='Float32' NumberOfComponents='3' Format='ascii'> 
  1.220000   0.000000   0.000000 
  1.219516   0.034370   0.000000 
  1.218063   0.068712   0.000000 
  1.215644   0.103000   0.000000 
  1.212260   0.137207   0.000000 
  1.207913   0.171304   0.000000 
  1.202608   0.205265   0.000000 
  1.196348   0.239064   0.000000 
  1.189138   0.272672   0.000000 
  1.180985   0.306064   0.000000 
  1.171893   0.339214   0.000000 
  1.161872   0.372094   0.000000 
  1.150928   0.404678   0.000000 
  1.139071   0.436941   0.000000 
  1.126309   0.468858   0.000000 
  1.112653   0.500402   0.000000 
  1.098114   0.531549   0.000000 
  1.082704   0.562274   0.000000 
  1.066434   0.592553   0.000000 
  1.049317   0.622361   0.000000 
  1.031367   0.651676   0.000000 
  1.012599   0.680473   0.000000 
  0.993027   0.708730   0.000000 
  0.972666   0.736424   0.000000 
  0.951534   0.763534   0.000000 
  0.929646   0.790037   0.000000 
  0.907020   0.815913   0.000000 
  0.883674   0.841142   0.000000 
  0.859627   0.865703   0.000000 
  0.834897   0.889577   0.000000 
  0.809504   0.912745   0.000000 
  0.783469   0.935188   0.000000 
  0.756812   0.956888   0.000000 
  0.729554   0.977830   0.000000 
  0.701717   0.997994   0.000000 
  0.673323   1.017367   0.000000 
  0.644395   1.035932   0.000000 
  0.614955   1.053675   0.000000 
  0.585027   1.070581   0.000000 
  0.554634   1.086638   0.000000 
  0.523801   1.101831   0.000000 
  0.492552   1.116151   0.000000 
  0.460913   1.129584   0.000000 
  0.428907   1.142120   0.000000 
  0.396561   1.153750   0.000000 
  0.363900   1.164464   0.000000 
  0.330951   1.174254   0.000000 
  0.297738   1.183111   0.000000 
  0.264289   1.191029   0.000000 
  0.230631   1.198002   0.000000 
  0.196789   1.204024   0.000000 
  0.162791   1.209090   0.000000 
  0.128664   1.213196   0.000000 
  0.094435   1.216340   0.000000 
  0.060131   1.218517   0.000000 
  0.025779   1.219728   0.000000 
 -0.008594   1.219970   0.000000 
 -0.042959   1.219243   0.000000 
 -0.077291   1.217549   0.000000 
 -0.111561   1.214889   0.000000 
 -0.145742   1.211263   0.000000 
 -0.179808   1.206677   0.000000 
 -0.213731   1.201132   0.000000 
 -0.247485   1.194634   0.000000 
 -0.281042   1.187188   0.000000 
 -0.314376   1.178799   0.000000 
 -0.347460   1.169475   0.000000 
 -0.380268   1.159222   0.000000 
 -0.412775   1.148049   0.000000 
 -0.444954   1.135965   0.000000 
 -0.476780   1.122979   0.000000 
 -0.508227   1.109101   0.000000 
 -0.539271   1.094343   0.000000 
 -0.569887   1.078716   0.000000 
 -0.600050   1.062233   0.000000 
 -0.629737   1.044907   0.000000 
 -0.658924   1.026751   0.000000 
 -0.687589   1.007781   0.000000 
 -0.715707   0.988010   0.000000 
 -0.743257   0.967455   0.000000 
 -0.770217   0.946132   0.000000 
 -0.796566   0.924058   0.000000 
 -0.822282   0.901250   0.000000 
 -0.847346   0.877727   0.000000 
 -0.871737   0.853507   0.000000 
 -0.895436   0.828610   0.000000 
 -0.918424   0.803055   0.000000 
 -0.940683   0.776862   0.000000 
 -0.962196   0.750053   0.000000 
 -0.982944   0.722648   0.000000 
 -1.002912   0.694670   0.000000 
 -1.022085   0.666140   0.000000 
 -1.040445   0.637082   0.000000 
 -1.057980   0.607518   0.000000 
 -1.074675   0.577471   0.000000 
 -1.090517   0.546966   0.000000 
 -1.105494   0.516027   0.000000 
 -1.119592   0.484678   0.000000 
 -1.132802   0.452945   0.000000 
 -1.145113   0.420852   0.000000 
 -1.156515   0.388424   0.000000 
 -1.166998   0.355689   0.000000 
 -1.176556   0.322671   0.000000 
 -1.185179   0.289397   0.000000 
 -1.192862   0.255893   0.000000 
 -1.199597   0.222187   0.000000 
 -1.205380   0.188303   0.000000 
 -1.210207   0.154271   0.000000 
 -1.214073   0.120115   0.000000 
 -1.216975   0.085865   0.000000 
 -1.218911   0.051546   0.000000 
 -1.219879   0.017187   0.000000 
 -1.219879  -0.017187   0.000000 
 -1.218911  -0.051546   0.000000 
 -1.216975  -0.085865   0.000000 
 -1.214073  -0.120115   0.000000 
 -1.210207  -0.154271   0.000000 
 -1.205380  -0.188303   0.000000 
 -1.199597  -0.222187   0.000000 
 -1.192862  -0.255893   0.000000 
 -1.185179  -0.289397   0.000000 
 -1.176556  -0.322671   0.000000 
 -1.166998  -0.355689   0.000000 
 -1.156515  -0.388424   0.000000 
 -1.145113  -0.420852   0.000000 
 -1.132802  -0.452945   0.000000 
 -1.119592  -0.484678   0.000000 
 -1.105494  -0.516027   0.000000 
 -1.090517  -0.546966   0.000000 
 -1.074675  -0.577471   0.000000 
 -1.057980  -0.607518   0.000000 
 -1.040445  -0.637082   0.000000 
 -1.022085  -0.666140   0.000000 
 -1.002912  -0.694670   0.000000 
 -0.982944  -0.722648   0.000000 
 -0.962196  -0.750053   0.000000 
 -0.940683  -0.776862   0.000000 
 -0.918424  -0.803055   0.000000 
 -0.895436  -0.828610   0.000000 
 -0.871737  -0.853507   0.000000 
 -0.847346  -0.877727   0.000000 
 -0.822282  -0.901250   0.000000 
 -0.796566  -0.924058   0.000000 
 -0.770217  -0.946132   0.000000 
 -0.743257  -0.967455   0.000000 
 -0.715707  -0.988010   0.000000 
 -0.687589  -1.007781   0.000000 
 -0.658924  -1.026751   0.000000 
 -0.629737  -1.044907   0.000000 
 -0.600050  -1.062233   0.000000 
 -0.569887  -1.078716   0.000000 
 -0.539271  -1.094343   0.000000 
 -0.508227  -1.109101   0.000000 
 -0.476780  -1.122979   0.000000 
 -0.444954  -1.135965   0.000000 
 -0.412775  -1.148049   0.000000 
 -0.380268  -1.159222   0.000000 
 -0.347460  -1.169475   0.000000 
 -0.314376  -1.178799   0.000000 
 -0.281042  -1.187188   0.000000 
 -0.247485  -1.194634   0.000000 
 -0.213731  -1.201132   0.000000 
 -0.179808  -1.206677   0.000000 
 -0.145742  -1.211263   0.000000 
 -0.111561  -1.214889   0.000000 
 -0.077291  -1.217549   0.000000 
 -0.042959  -1.219243   0.000000 
 -0.008594  -1.219970   0.000000 
  0.025779  -1.219728   0.000000 
  0.060131  -1.218517   0.000000 
  0.094435  -1.216340   0.000000 
  0.128664  -1.213196   0.000000 
  0.162791  -1.209090   0.000000 
  0.196789  -1.204024   0.000000 
  0.230631  -1.198002   0.000000 
  0.264289  -1.191029   0.000000 
  0.297738  -1.183111   0.000000 
  0.330951  -1.174254   0.000000 
  0.363900  -1.164464   0.000000 
  0.396561  -1.153750   0.000000 
  0.428907  -1.142120   0.000000 
  0.460913  -1.129584   0.000000 
  0.492552  -1.116151   0.000000 
  0.523801  -1.101831   0.000000 
  0.554634  -1.086638   0.000000 
  0.585027  -1.070581   0.000000 
  0.614955  -1.053675   0.000000 
  0.644395  -1.035932   0.000000 
  0.673323  -1.017367   0.000000 
  0.701717  -0.997994   0.000000 
  0.729554  -0.977830   0.000000 
  0.756812  -0.956888   0.000000 
  0.783469  -0.935188   0.000000 
  0.809504  -0.912745   0.000000 
  0.834897  -0.889577   0.000000 
  0.859627  -0.865703   0.000000 
  0.883674  -0.841142   0.000000 
  0.907020  -0.815913   0.000000 
  0.929646  -0.790037   0.000000 
  0.951534  -0.763534   0.000000 
  0.972666  -0.736424   0.000000 
  0.993027  -0.708730   0.000000 
  1.012599  -0.680473   0.000000 
  1.031367  -0.651676   0.000000 
  1.049317  -0.622361   0.000000 
  1.066434  -0.592553   0.000000 
  1.082704  -0.562274   0.000000 
  1.098114  -0.531549   0.000000 
  1.112653  -0.500402   0.000000 
  1.126309  -0.468858   0.000000 
  1.139071  -0.436941   0.000000 
  1.150928  -0.404678   0.000000 
  1.161872  -0.372094   0.000000 
  1.171893  -0.339214   0.000000 
  1.180985  -0.306064   0.000000 
  1.189138  -0.272672   0.000000 
  1.196348  -0.239064   0.000000 
  1.202608  -0.205265   0.000000 
  1.207913  -0.171304   0.000000 
  1.212260  -0.137207   0.000000 
  1.215644  -0.103000   0.000000 
  1.218063  -0.068712   0.000000 
  1.219516  -0.034370   0.000000 
  1.282500   0.000000   0.000000 
  1.281991   0.036131   0.000000 
  1.280464   0.072232   0.000000 
  1.277921   0.108277   0.000000 
  1.274364   0.144236   0.000000 
  1.269794   0.180080   0.000000 
  1.264217   0.215781   0.000000 
  1.257636   0.251311   0.000000 
  1.250057   0.286641   0.000000 
  1.241486   0.321744   0.000000 
  1.231929   0.356591   0.000000 
  1.221394   0.391156   0.000000 
  1.209890   0.425410   0.000000 
  1.197425   0.459326   0.000000 
  1.184009   0.492877   0.000000 
  1.169654   0.526038   0.000000 
  1.154370   0.558780   0.000000 
  1.138170   0.591079   0.000000 
  1.121067   0.622909   0.000000 
  1.103073   0.654245   0.000000 
  1.084204   0.685061   0.000000 
  1.064474   0.715333   0.000000 
  1.043899   0.745038   0.000000 
  1.022496   0.774151   0.000000 
  1.000280   0.802649   0.000000 
  0.977271   0.830510   0.000000 
  0.953486   0.857712   0.000000 
  0.928944   0.884234   0.000000 
  0.903665   0.910053   0.000000 
  0.877668   0.935150   0.000000 
  0.850975   0.959504   0.000000 
  0.823606   0.983097   0.000000 
  0.795583   1.005909   0.000000 
  0.766929   1.027923   0.000000 
  0.737666   1.049121   0.000000 
  0.707817   1.069486   0.000000 
  0.677407   1.089002   0.000000 
  0.646459   1.107654   0.000000 
  0.614997   1.125426   0.000000 
  0.583048   1.142305   0.000000 
  0.550635   1.158278   0.000000 
  0.517786   1.173330   0.000000 
  0.484525   1.187452   0.000000 
  0.450880   1.200631   0.000000 
  0.416877   1.212856   0.000000 
  0.382543   1.224119   0.000000 
  0.347905   1.234410   0.000000 
  0.312991   1.243721   0.000000 
  0.277829   1.252045   0.000000 
  0.242446   1.259375   0.000000 
  0.206871   1.265706   0.000000 
  0.171131   1.271031   0.000000 
  0.135256   1.275348   0.000000 
  0.099273   1.278652   0.000000 
  0.063211   1.280941   0.000000 
  0.027100   1.282214   0.000000 
 -0.009034   1.282468   0.000000 
 -0.045160   1.281705   0.000000 
 -0.081250   1.279924   0.000000 
 -0.117276   1.277127   0.000000 
 -0.153209   1.273316   0.000000 
 -0.189020   1.268494   0.000000 
 -0.224681   1.262666   0.000000 
 -0.260163   1.255835   0.000000 
[...]
<CellData Scalars='scalars'>
<DataArray type='Float32' Name='p' Format='ascii'> 
-31778.332595
-31778.330913
-31778.261177
-31778.138759
-31777.991762
-31777.838842
-31777.678487
-31777.501226
-31777.289109
-31777.026913
-31776.713445
-31776.368974
-31776.034189
-31775.755656
-31775.564116
-31775.471155
-31775.478840
-31775.587132
-31775.793521
-31776.083352
-31776.422753
-31776.765309
-31777.071467
-31777.324659
-31777.530239
-31777.703668
-31777.861909
-31778.013886
-31778.157677
-31778.273171
-31778.329276
-31778.323819
-31778.329696
-31778.321284
-31778.243238
-31778.118250
-31777.970730
-31777.817048
-31777.655181
-31777.473805
-31777.255538
-31776.986179
-31776.666356
-31776.319895
-31775.990021
-31775.721709
-31775.543016
-31775.463970
-31775.485809
-31775.608215
-31775.827904
-31776.127503
-31776.470712
-31776.810033
-31777.109336
-31777.355230
-31777.554983
-31777.725252
-31777.882691
-31778.034293
-31778.176253
-31778.285029
-31778.330413
-31778.320727
-31778.331231
-31778.316747
-31778.230402
-31778.098469
-31777.949698
-31777.795095
-31777.631239
-31777.445452
-31777.220454
-31776.943433
-31776.617766
-31776.270384
-31775.946854
-31775.690059
-31775.525235
-31775.460485
-31775.496592
-31775.633346
-31775.865796
-31776.174262
-31776.519711
-31776.855110
-31777.147080
-31777.385880
-31777.580693
-31777.748632
-31777.905110
-31778.055950
-31778.194943
-31778.297625
-31778.331731
-31778.319635
-31778.332095
-31778.308676
-31778.213656
-31778.077960
-31777.927541
-31777.771494
-31777.605545
-31777.415336
-31777.183699
-31776.899039
-31776.568449
-31776.221476
-31775.905086
-31775.660193
-31775.509399
-31775.458933
-31775.509342
-31775.660159
-31775.905154
-31776.221556
-31776.568272
-31776.899465
-31777.184066
-31777.415336
-31777.605528
-31777.771198
-31777.927035
-31778.077312
-31778.213406
-31778.308494
-31778.331868
-31778.319362
-31778.331459
-31778.297375
-31778.195000
-31778.055768
-31777.904792
-31777.748563
-31777.580602
-31777.386062
-31777.148877
-31776.855144
-31776.519427
-31776.174058
-31775.865648
-31775.633261
-31775.496586
-31775.460462
-31775.525179
-31775.689888
-31775.946786
-31776.270453
-31776.617652
-31776.943547
-31777.220579
-31777.445258
-31777.630579
-31777.794459
-31777.949380
-31778.099230
-31778.230709
-31778.316975
-31778.331322
-31778.321318
-31778.331004
-31778.285734
-31778.176572
-31778.034969
-31777.883493
-31777.726372
-31777.555716
-31777.355673
-31777.109609
-31776.810829
-31776.471201
-31776.128253
-31775.828586
-31775.608954
-31775.486434
-31775.464663
-31775.543710
-31775.722300
-31775.990578
-31776.320481
-31776.667100
-31776.986521
-31777.256095
-31777.474476
-31777.655613
-31777.817242
-31777.970901
-31778.119728
-31778.245136
-31778.322466
-31778.329071
-31778.323364
-31778.329253
-31778.273149
-31778.157540
-31778.013567
-31777.862114
-31777.703362
-31777.530046
-31777.324523
-31777.071240
-31776.764695
-31776.422361
-31776.082460
-31775.792350
-31775.585953
-31775.477885
-31775.470541
-31775.564128
-31775.756656
-31776.036076
-31776.371338
-31776.716389
-31777.029733
-31777.291019
-31777.502613
-31777.680078
-31777.839672
-31777.992206
-31778.138117
-31778.258290
-31778.323682
-31778.321045
-94268.564908
-94268.693897
-94268.746511
-94268.735934
-94268.727293
-94268.722941
-94268.712741
-94268.697728
-94268.670568
-94268.614339
-94268.522491
-94268.385021
-94268.221596
-94268.057831
-94267.920565
-94267.844213
-94267.851040
-94267.938556
-94268.082492
-94268.247351
-94268.408415
-94268.538791
-94268.625304
-94268.675366
-94268.699758
-94268.713053
-94268.723740
-94268.726514
-94268.736643
-94268.742407
-94268.676435
-94268.549765
-94268.586736
-94268.705038
-94268.747534
-94268.732369
-94268.727116
-94268.720932
-94268.710166
-94268.693954
-94268.664810
-94268.603283
-94268.505698
-94268.362481
-94268.198262
-94268.036082
-94267.905220
-94267.839566
-94267.858157
-94267.955257
-94268.104147
-94268.269390
-94268.428791
-94268.552004
-94268.633632
-94268.677958
-94268.701338
-94268.713008
-94268.723478
-94268.725513
-94268.738349
-94268.737388
-94268.659541
-94268.536145
-94268.605153
-94268.714747
-94268.745585
-94268.729549
-94268.724138
-94268.719579
-94268.709461
-94268.690680
-94268.658916
-94268.591988
-94268.488544
-94268.339666
-94268.174547
-94268.014431
-94267.891032
-94267.836678
-94267.867522
-94267.973898
-94268.127236
-94268.292713
-94268.449408
-94268.565709
-94268.642857
-94268.682415
-94268.704254
-94268.714724
-94268.725127
-94268.726343
-94268.741319
-94268.731186
-94268.642943
-94268.529756
-94268.623570
-94268.724666
-94268.743726
-94268.727730
-94268.726389
-94268.716441
-94268.706403
-94268.685939
-94268.650656
-94268.578619
-94268.468939
-94268.315644
-94268.150417
-94267.993256
-94267.878114
-94267.835419
-94267.878086
-94267.993370
-94268.150434
-94268.315780
-94268.468951
-94268.578692
-94268.650855
-94268.685956
-94268.706565
-94268.716214
-94268.725633
-94268.727258
-94268.744044
-94268.723871
-94268.624025
-94268.528824
-94268.642579
-94268.731334
-94268.740456
-94268.726173
-94268.724752
-94268.714383
-94268.703992
-94268.681931
-94268.647410
-94268.566505
-94268.449425
-94268.292690
-94268.127179
-94267.973816
-94267.867397
-94267.836579
-94267.890995
-94268.014192
-94268.174291
-94268.339603
-94268.488294
-94268.591613
-94268.658768
-94268.690111
-94268.709222
-94268.718533
-94268.727469
-94268.730032
-94268.746119
-94268.715293
-94268.605835
-94268.537009
-94268.660428
-94268.737507
-94268.738866
-94268.725923
-94268.724121
-94268.714122
-94268.702111
-94268.678907
-94268.631932
-94268.549617
-94268.429717
-94268.269999
-94268.104817
-94267.955956
-94267.858873
-94267.840220
-94267.905826
-94268.036584
-94268.198916
-94268.363304
-94268.506658
-94268.603974
-94268.665568
-94268.694477
-94268.711399
-94268.721364
-94268.727685
-94268.732323
-94268.746597
-94268.706107
-94268.585258
-94268.549037
-94268.676048
-94268.741734
-94268.736450
-94268.726184
-94268.723183
-94268.712814
-94268.699667
-94268.674746
-94268.625054
-94268.538439
-94268.408117
-94268.246895
-94268.082228
-94267.938709
-94267.851620
-94267.845270
-94267.921781
-94268.059195
-94268.222853
-94268.385737
-94268.522764
-94268.614555
-94268.670671
-94268.697075
-94268.712280
-94268.722194
-94268.727356
-94268.734361
-94268.745602
-94268.691555
-94268.569001
-156759.298335
-156759.352865
-156759.398277
-156759.429103
-156759.476673
-156759.539198
-156759.603425
-156759.638949
-156759.637116
-156759.598440
-156759.541790
-156759.578340
-156759.721787
-156759.848517
-156759.905650
-156759.918212
-156759.917471
-156759.900528
-156759.832674
-156759.696534
-156759.560991
-156759.545962
-156759.604113
-156759.638429
-156759.633626
-156759.593165
-156759.526192
-156759.467075
-156759.420582
-156759.392723
-156759.339757
-156759.299966
-156759.293759
-156759.363949
-156759.398050
-156759.433708
-156759.481433
-156759.547144
-156759.607330
-156759.639594
-156759.631142
-156759.588384
-156759.535446
-156759.592335
-156759.740429
-156759.859203
-156759.908114
-156759.917880
-156759.915551
-156759.893845
-156759.815195
-156759.672927
-156759.547872
-156759.552067
-156759.608922
-156759.638980
-156759.627527
-156759.583558
-156759.514334
-156759.458747
-156759.412744
-156759.387772
-156759.324284
-156759.302786
-156759.293645
-156759.371248
-156759.399130
-156759.439014
-156759.486447
-156759.556000
-156759.611946
-156759.640282
-156759.625628
-156759.579068
-156759.533411
-156759.610678
-156759.760642
-156759.869822
-156759.910578
-156759.917728
-156759.914073
-156759.886960
-156759.797875
-156759.651031
-156759.539550
-156759.560610
-156759.614731
-156759.640123
-156759.622269
-156759.574679
-156759.503955
-156759.451772
-156759.406730
-156759.383174
-156759.310335
-156759.304809
-156759.299762
-156759.377671
-156759.402120
-156759.445292
-156759.494655
-156759.565152
-156759.616709
-156759.640294
-156759.619483
-156759.569296
-156759.534360
-156759.629584
-156759.779122
-156759.878658
-156759.912006
-156759.917337
-156759.912089
-156759.878601
-156759.779179
-156759.629738
-156759.534394
-156759.568463
-156759.620972
-156759.640086
-156759.616544
-156759.563822
-156759.496053
-156759.444860
-156759.401902
-156759.376057
-156759.302081
-156759.305054
-156759.310403
-156759.382912
-156759.406478
-156759.451500
-156759.503602
-156759.574384
-156759.621780
-156759.639788
-156759.614470
-156759.560264
-156759.539533
-156759.650980
-156759.797790
-156759.886946
-156759.914032
-156759.917741
-156759.910422
-156759.869859
-156759.760398
-156759.610536
-156759.533559
-156759.579249
-156759.625509
-156759.640646
-156759.612071
-156759.556421
-156759.487544
-156759.439423
-156759.399516
-156759.371805
-156759.294214
-156759.302843
-156759.324693
-156759.388739
-156759.413272
-156759.459554
-156759.514761
-156759.584263
-156759.628035
-156759.639492
-156759.609285
-156759.552874
-156759.548446
-156759.673806
-156759.815884
-156759.894553
-156759.916231
-156759.918511
-156759.908725
-156759.860033
-156759.741182
-156759.593216
-156759.536429
-156759.588901
-156759.631398
-156759.640640
-156759.607592
-156759.548076
-156759.481524
-156759.434736
-156759.398112
-156759.365336
-156759.292759
-156759.299989
-156759.339029
-156759.392598
-156759.420028
-156759.466915
-156759.525726
-156759.592733
-156759.632887
-156759.637827
-156759.603510
-156759.545308
-156759.560423
-156759.695972
-156759.832083
-156759.900563
-156759.917661
-156759.918499
-156759.905400
-156759.847391
-156759.719485
-156759.576367
-156759.540209
-156759.597621
-156759.635644
-156759.638327
-156759.601390
-156759.538103
-156759.474719
-156759.428742
-156759.396413
-156759.354775
-156759.295214
-219249.987367
-219249.990835
-219250.004164
-219250.033589
-219250.064356
-219250.098932
-219250.131218
-219250.160870
-219250.173808
-219250.188172
-219250.301927
-219250.615493
-219251.104797
-219251.557291
-219251.817160
-219251.916491
-219251.909041
-219251.788747
-219251.498032
-219251.022440
-219250.550305
-219250.269299
-219250.180385
-219250.169113
-219250.154743
-219250.122575
-219250.091277
-219250.055682
-219250.027311
-219249.997190
-219249.988686
-219249.984127
-219249.987663
-219249.985753
-219250.006762
-219250.033120
-219250.066766
-219250.098621
-219250.133034
-219250.159438
-219250.171324
-219250.191083
-219250.328507
-219250.671097
-219251.171865
-219251.602755
-219251.837603
-219251.920038
-219251.898790
-219251.757989
-219251.438702
-219250.946989
-219250.495655
-219250.244322
-219250.176087
-219250.165293
-219250.149792
-219250.115248
-219250.085416
-219250.048301
-219250.022445
-219249.990471
-219249.987686
-219249.980432
-219249.987128
-219249.983138
-219250.010605
-219250.034395
-219250.070322
-219250.100429
-219250.136485
-219250.159540
-219250.171205
-219250.198245
-219250.363114
-219250.735310
-219251.242990
-219251.647415
-219251.856682
-219251.922437
-219251.886986
-219251.724758
-219251.376373
-219250.873528
-219250.446537
-219250.224939
-219250.173438
-219250.163042
-219250.145307
-219250.109245
-219250.080454
-219250.042278
-219250.018421
-219249.985753
-219249.987640
-219249.978772
-219249.987595
-219249.982911
-219250.014447
-219250.037392
-219250.075452
-219250.104089
-219250.140634
-219250.160529
-219250.171608
-219250.208863
-219250.401938
-219250.802144
-219251.310631
-219251.687460
-219251.872329
-219251.922977
-219251.872551
-219251.687440
-219251.310438
-219250.802337
-219250.401955
-219250.209386
-219250.171503
-219250.160461
-219250.140458
-219250.103862
-219250.075003
-219250.037165
-219250.013942
-219249.982956
-219249.987208
-219249.978659
-219249.987606
-219249.985503
-219250.018284
-219250.041972
-219250.080409
-219250.108830
-219250.144869
-219250.162735
-219250.174217
-219250.224643
-219250.446315
-219250.873394
-219251.376160
-219251.724556
-219251.886801
-219251.922351
-219251.856463
-219251.647208
-219251.242709
-219250.735006
-219250.363045
-219250.198404
-219250.171500
-219250.159824
-219250.136922
-219250.100866
-219250.071166
-219250.034503
-219250.010991
-219249.983786
-219249.988629
-219249.980205
-219249.988572
-219249.990874
-219250.023304
-219250.048596
-219250.086141
-219250.115819
-219250.150195
-219250.165890
-219250.176474
-219250.244777
-219250.496400
-219250.947458
-219251.439324
-219251.758651
-219251.899316
-219251.920618
-219251.838254
-219251.603627
-219251.173178
-219250.671830
-219250.329366
-219250.191486
-219250.172370
-219250.159728
-219250.134040
-219250.098792
-219250.067914
-219250.032791
-219250.008195
-219249.986162
-219249.988231
-219249.983365
-219249.988800
-219249.996610
-219250.027166
-219250.055068
-219250.090890
-219250.121904
-219250.154225
-219250.168237
-219250.180010
-219250.268833
-219250.550043
-219251.022247
-219251.497833
-219251.788630
-219251.909007
-219251.916180
-219251.815797
-219251.553909
-219251.099733
-219250.610286
-219250.298755
-219250.186080
-219250.172296
-219250.158653
-219250.130002
-219250.096322
-219250.063624
-219250.031489
-219250.004977
-219249.988629
-219249.989482
-281740.476817
-281740.487321
-281740.509311
-281740.527309
-281740.542064
-281740.542758
-281740.535519
-281740.537719
-281740.604720
-281740.797379
-281741.191424
-281741.861374
-281742.694901
-281743.386148
-281743.797910
-281743.970720
-281743.956765
-281743.751748
-281743.296216
-281742.566818
-281741.737214
-281741.111260
-281740.752858
-281740.585393
-281740.530396
-281740.534061
-281740.538998
-281740.538253
-281740.520080
-281740.504306
-281740.479068
-281740.474281
-281740.470587
-281740.489504
-281740.506637
-281740.527873
-281740.537719
-281740.539447
-281740.529374
-281740.538361
-281740.617284
-281740.833725
-281741.261176
-281741.968286
-281742.800473
-281743.457634
-281743.832457
-281743.977916
-281743.938606
-281743.702851
-281743.206472
-281742.446452
-281741.628510
-281741.044290
-281740.716679
-281740.570631
-281740.526395
-281740.534408
-281740.536368
-281740.535752
-281740.514100
-281740.501191
-281740.472451
-281740.473474
-281740.467130
-281740.492684
-281740.505665
-281740.529934
-281740.535689
-281740.537849
-281740.525881
-281740.542914
-281740.635614
-281740.878484
-281741.342241
-281742.085460
-281742.908720
-281743.527182
-281743.864826
-281743.982944
-281743.917566
-281743.649536
-281743.111817
-281742.325257
-281741.526105
-281740.983290
-281740.685398
-281740.559205
-281740.524576
-281740.535650
-281740.535223
-281740.534194
-281740.509757
-281740.498542
-281740.467915
-281740.473133
-281740.466266
-281740.495780
-281740.506637
-281740.532370
-281740.534572
-281740.536805
-281740.524224
-281740.549772
-281740.657988
-281740.927778
-281741.430103
-281742.203993
-281743.011925
-281743.590574
-281743.892725
-281743.984175
-281743.892668
-281743.590585
-281743.012039
-281742.204135
-281741.430314
-281740.927710
-281740.657954
-281740.549667
-281740.524096
-281740.536333
-281740.534516
-281740.531855
-281740.506682
-281740.495438
-281740.466107
-281740.472974
-281740.467824
-281740.498463
-281740.509558
-281740.534032
-281740.535115
-281740.535570
-281740.524184
-281740.558805
-281740.684952
-281740.983428
-281741.525895
-281742.325100
-281743.111756
-281743.649344
-281743.917552
-281743.982785
-281743.864610
-281743.527091
-281742.908351
-281742.085227
-281741.342130
-281740.878603
-281740.635842
-281740.543323
-281740.526179
-281740.537775
-281740.536167
-281740.530522
-281740.505915
-281740.493131
-281740.467653
-281740.473974
-281740.472678
-281740.502010
-281740.514592
-281740.536645
-281740.536834
-281740.535107
-281740.526844
-281740.571063
-281740.716997
-281741.044682
-281741.628908
-281742.447049
-281743.207086
-281743.703511
-281743.939249
-281743.978638
-281743.833079
-281743.458518
-281742.801241
-281741.969218
-281741.261682
-281740.834799
-281740.617746
-281740.539332
-281740.529789
-281740.540584
-281740.537739
-281740.529380
-281740.506205
-281740.491437
-281740.469791
-281740.474406
-281740.478351
-281740.504329
-281740.519421
-281740.537770
-281740.538213
-281740.533700
-281740.529800
-281740.584762
-281740.752268
-281741.111161
-281741.737317
-281742.566989
-281743.296526
-281743.751697
-281743.956549
-281743.969984
-281743.795642
-281743.381947
-281742.687591
-281741.853814
-281741.185711
-281740.794247
-281740.602099
-281740.536462
-281740.533592
-281740.542133
-281740.539987
-281740.527311
-281740.507126
-281740.487742
-281740.474452
-344230.849100
-344230.864937
-344230.883820
-344230.900957
-344230.908223
-344230.926362
-344230.982145
-344231.117896
-344231.374504
-344231.852017
-344232.644215
-344233.666817
-344234.655176
-344235.413388
-344235.890179
-344236.107546
-344236.089961
-344235.834424
-344235.315053
-344234.513405
-344233.503102
-344232.499292
-344231.757177
-344231.320378
-344231.088184
-344230.965061
-344230.919322
-344230.901968
-344230.896110
-344230.875328
-344230.859628
-344230.842705
-344230.849578
-344230.860662
-344230.884480
-344230.895757
-344230.906410
-344230.924975
-344230.991408
-344231.139090
-344231.419931
-344231.935608
-344232.771423
-344233.805433
-344234.772490
-344235.492989
-344235.933125
-344236.116669
-344236.067031
-344235.775486
-344235.216750
-344234.376780
-344233.351626
-344232.370952
-344231.676308
-344231.274687
-344231.063733
-344230.951906
-344230.914868
-344230.897494
-344230.893609
-344230.868347
-344230.856854
-344230.837709
-344230.850965
-344230.859389
-344230.887012
-344230.893816
-344230.907419
-344230.927749
-344231.005761
-344231.166321
-344231.475003
-344232.032080
-344232.910891
-344233.951196
-344234.891483
-344235.571262
-344235.973738
-344236.122876
-344236.040532
-344235.712270
-344235.113408
-344234.237187
-344233.201685
-344232.249989
-344231.602634
-344231.234101
-344231.042124
-344230.941289
-344230.911992
-344230.894643
-344230.891528
-344230.863274
-344230.854654
-344230.835253
-344230.852397
-344230.860196
-344230.889175
-344230.893239
-344230.909354
-344230.933061
-344231.022753
-344231.197735
-344231.535325
-344232.136359
-344233.054045
-344234.094729
-344235.004377
-344235.643732
-344236.009090
-344236.124434
-344236.009022
-344235.643848
-344235.004533
-344234.094612
-344233.054005
-344232.136467
-344231.535229
-344231.197600
-344231.022424
-344230.932853
-344230.909067
-344230.893054
-344230.888868
-344230.860173
-344230.852443
-344230.835026
-344230.854495
-344230.863161
-344230.891318
-344230.894575
-344230.911730
-344230.941118
-344231.041942
-344231.233737
-344231.602645
-344232.249543
-344233.201642
-344234.237014
-344235.113452
-344235.712218
-344236.040442
-344236.122691
-344235.973601
-344235.571012
-344234.891219
-344233.950753
-344232.910874
-344232.031983
-344231.475071
-344231.166400
-344231.006079
-344230.927897
-344230.907763
-344230.894089
-344230.887347
-344230.859787
-344230.851397
-344230.838232
-344230.856899
-344230.868814
-344230.894277
-344230.897871
-344230.915430
-344230.952099
-344231.064307
-344231.274937
-344231.677036
-344232.371413
-344233.352320
-344234.377422
-344235.217509
-344235.776049
-344236.067792
-344236.117226
-344235.933926
-344235.493648
-344234.773436
-344233.806058
-344232.772449
-344231.935985
-344231.421050
-344231.139215
-344230.992579
-344230.925123
-344230.907874
-344230.895797
-344230.886230
-344230.859685
-344230.850112
-344230.842027
-344230.859639
-344230.874521
-344230.895928
-344230.901166
-344230.918859
-344230.964259
-344231.087865
-344231.319860
-344231.757120
-344232.499252
-344233.503397
-344234.513605
-344235.315245
-344235.834154
-344236.089549
-344236.106184
-344235.887655
-344235.408608
-344234.648105
-344233.657393
-344232.636576
-344231.846316
-344231.371571
-344231.115344
-344230.981443
-344230.924327
-344230.907905
-344230.898645
-344230.884042
-344230.862777
-344230.850669
-406721.149352
-406721.171021
-406721.221734
-406721.300243
-406721.426640
-406721.617094
-406721.905313
-406722.337686
-406722.993279
-406723.904257
-406724.978873
-406726.047476
-406726.976161
-406727.687800
-406728.157463
-406728.381036
-406728.362394
-406728.101883
-406727.593762