<VTKFile type='UnstructuredGrid' version='0.1' byte_order='BigEndian'> 
<UnstructuredGrid> 
<Piece NumberOfPoints='  1089 ' NumberOfCells='  1024 '> 
<Points> 
<DataArray type='Float32' NumberOfComponents='3' Format='ascii'> 
0.000000e+00 0.000000e+00 0.000000e+00 
3.125000e-02 0.000000e+00 0.000000e+00 
6.250000e-02 0.000000e+00 0.000000e+00 
9.375000e-02 0.000000e+00 0.000000e+00 
1.250000e-01 0.000000e+00 0.000000e+00 
1.562500e-01 0.000000e+00 0.000000e+00 
1.875000e-01 0.000000e+00 0.000000e+00 
2.187500e-01 0.000000e+00 0.000000e+00 
2.500000e-01 0.000000e+00 0.000000e+00 
2.812500e-01 0.000000e+00 0.000000e+00 
3.125000e-01 0.000000e+00 0.000000e+00 
3.437500e-01 0.000000e+00 0.000000e+00 
3.750000e-01 0.000000e+00 0.000000e+00 
4.062500e-01 0.000000e+00 0.000000e+00 
4.375000e-01 0.000000e+00 0.000000e+00 
4.687500e-01 0.000000e+00 0.000000e+00 
5.000000e-01 0.000000e+00 0.000000e+00 
5.312500e-01 0.000000e+00 0.000000e+00 
5.625000e-01 0.000000e+00 0.000000e+00 
5.937500e-01 0.000000e+00 0.000000e+00 
6.250000e-01 0.000000e+00 0.000000e+00 
6.562500e-01 0.000000e+00 0.000000e+00 
6.875000e-01 0.000000e+00 0.000000e+00 
7.187500e-01 0.000000e+00 0.000000e+00 
7.500000e-01 0.000000e+00 0.000000e+00 
7.812500e-01 0.000000e+00 0.000000e+00 
8.125000e-01 0.000000e+00 0.000000e+00 
8.437500e-01 0.000000e+00 0.000000e+00 
8.750000e-01 0.000000e+00 0.000000e+00 
9.062500e-01 0.000000e+00 0.000000e+00 
9.375000e-01 0.000000e+00 0.000000e+00 
9.687500e-01 0.000000e+00 0.000000e+00 
1.000000e+00 0.000000e+00 0.000000e+00 
0.000000e+00 3.125000e-02 0.000000e+00 
3.125000e-02 3.125000e-02 0.000000e+00 
6.250000e-02 3.125000e-02 0.000000e+00 
9.375000e-02 3.125000e-02 0.000000e+00 
1.250000e-01 3.125000e-02 0.000000e+00 
1.562500e-01 3.125000e-02 0.000000e+00 
1.875000e-01 3.125000e-02 0.000000e+00 
2.187500e-01 3.125000e-02 0.000000e+00 
2.500000e-01 3.125000e-02 0.000000e+00 
2.812500e-01 3.125000e-02 0.000000e+00 
3.125000e-01 3.125000e-02 0.000000e+00 
3.437500e-01 3.125000e-02 0.000000e+00 
3.750000e-01 3.125000e-02 0.000000e+00 
4.062500e-01 3.125000e-02 0.000000e+00 
4.375000e-01 3.125000e-02 0.000000e+00 
4.687500e-01 3.125000e-02 0.000000e+00 
5.000000e-01 3.125000e-02 0.000000e+00 
5.312500e-01 3.125000e-02 0.000000e+00 
5.625000e-01 3.125000e-02 0.000000e+00 
5.937500e-01 3.125000e-02 0.000000e+00 
6.250000e-01 3.125000e-02 0.000000e+00 
6.562500e-01 3.125000e-02 0.000000e+00 
6.875000e-01 3.125000e-02 0.000000e+00 
7.187500e-01 3.125000e-02 0.000000e+00 
7.500000e-01 3.125000e-02 0.000000e+00 
7.812500e-01 3.125000e-02 0.000000e+00 
8.125000e-01 3.125000e-02 0.000000e+00 
8.437500e-01 3.125000e-02 0.000000e+00 
8.750000e-01 3.125000e-02 0.000000e+00 
9.062500e-01 3.125000e-02 0.000000e+00 
9.375000e-01 3.125000e-02 0.000000e+00 
9.687500e-01 3.125000e-02 0.000000e+00 
1.000000e+00 3.125000e-02 0.000000e+00 
0.000000e+00 6.250000e-02 0.000000e+00 
3.125000e-02 6.250000e-02 0.000000e+00 
6.250000e-02 6.250000e-02 0.000000e+00 
9.375000e-02 6.250000e-02 0.000000e+00 
1.250000e-01 6.250000e-02 0.000000e+00 
1.562500e-01 6.250000e-02 0.000000e+00 
1.875000e-01 6.250000e-02 0.000000e+00 
2.187500e-01 6.250000e-02 0.000000e+00 
2.500000e-01 6.250000e-02 0.000000e+00 
2.812500e-01 6.250000e-02 0.000000e+00 
3.125000e-01 6.250000e-02 0.000000e+00 
3.437500e-01 6.250000e-02 0.000000e+00 
3.750000e-01 6.250000e-02 0.000000e+00 
4.062500e-01 6.250000e-02 0.000000e+00 
4.375000e-01 6.250000e-02 0.000000e+00 
4.687500e-01 6.250000e-02 0.000000e+00 
5.000000e-01 6.250000e-02 0.000000e+00 
5.312500e-01 6.250000e-02 0.000000e+00 
5.625000e-01 6.250000e-02 0.000000e+00 
5.937500e-01 6.250000e-02 0.000000e+00 
6.250000e-01 6.250000e-02 0.000000e+00 
6.562500e-01 6.250000e-02 0.000000e+00 
6.875000e-01 6.250000e-02 0.000000e+00 
7.187500e-01 6.250000e-02 0.000000e+00 
7.500000e-01 6.250000e-02 0.000000e+00 
7.812500e-01 6.250000e-02 0.000000e+00 
8.125000e-01 6.250000e-02 0.000000e+00 
8.437500e-01 6.250000e-02 0.000000e+00 
8.750000e-01 6.250000e-02 0.000000e+00 
9.062500e-01 6.250000e-02 0.000000e+00 
9.375000e-01 6.250000e-02 0.000000e+00 
9.687500e-01 6.250000e-02 0.000000e+00 
1.000000e+00 6.250000e-02 0.000000e+00 
0.000000e+00 9.375000e-02 0.000000e+00 
3.125000e-02 9.375000e-02 0.000000e+00 
6.250000e-02 9.375000e-02 0.000000e+00 
9.375000e-02 9.375000e-02 0.000000e+00 
1.250000e-01 9.375000e-02 0.000000e+00 
1.562500e-01 9.375000e-02 0.000000e+00 
1.875000e-01 9.375000e-02 0.000000e+00 
2.187500e-01 9.375000e-02 0.000000e+00 
2.500000e-01 9.375000e-02 0.000000e+00 
2.812500e-01 9.375000e-02 0.000000e+00 
3.125000e-01 9.375000e-02 0.000000e+00 
3.437500e-01 9.375000e-02 0.000000e+00 
3.750000e-01 9.375000e-02 0.000000e+00 
4.062500e-01 9.375000e-02 0.000000e+00 
4.375000e-01 9.375000e-02 0.000000e+00 
4.687500e-01 9.375000e-02 0.000000e+00 
5.000000e-01 9.375000e-02 0.000000e+00 
5.312500e-01 9.375000e-02 0.000000e+00 
5.625000e-01 9.375000e-02 0.000000e+00 
5.937500e-01 9.375000e-02 0.000000e+00 
6.250000e-01 9.375000e-02 0.000000e+00 
6.562500e-01 9.375000e-02 0.000000e+00 
6.875000e-01 9.375000e-02 0.000000e+00 
7.187500e-01 9.375000e-02 0.000000e+00 
7.500000e-01 9.375000e-02 0.000000e+00 
7.812500e-01 9.375000e-02 0.000000e+00 
8.125000e-01 9.375000e-02 0.000000e+00 
8.437500e-01 9.375000e-02 0.000000e+00 
8.750000e-01 9.375000e-02 0.000000e+00 
9.062500e-01 9.375000e-02 0.000000e+00 
9.375000e-01 9.375000e-02 0.000000e+00 
9.687500e-01 9.375000e-02 0.000000e+00 
1.000000e+00 9.375000e-02 0.000000e+00 
0.000000e+00 1.250000e-01 0.000000e+00 
3.125000e-02 1.250000e-01 0.000000e+00 
6.250000e-02 1.250000e-01 0.000000e+00 
9.375000e-02 1.250000e-01 0.000000e+00 
1.250000e-01 1.250000e-01 0.000000e+00 
1.562500e-01 1.250000e-01 0.000000e+00 
1.875000e-01 1.250000e-01 0.000000e+00 
2.187500e-01 1.250000e-01 0.000000e+00 
2.500000e-01 1.250000e-01 0.000000e+00 
2.812500e-01 1.250000e-01 0.000000e+00 
3.125000e-01 1.250000e-01 0.000000e+00 
3.437500e-01 1.250000e-01 0.000000e+00 
3.750000e-01 1.250000e-01 0.000000e+00 
4.062500e-01 1.250000e-01 0.000000e+00 
4.375000e-01 1.250000e-01 0.000000e+00 
4.687500e-01 1.250000e-01 0.000000e+00 
5.000000e-01 1.250000e-01 0.000000e+00 
5.312500e-01 1.250000e-01 0.000000e+00 
5.625000e-01 1.250000e-01 0.000000e+00 
5.937500e-01 1.250000e-01 0.000000e+00 
6.250000e-01 1.250000e-01 0.000000e+00 
6.562500e-01 1.250000e-01 0.000000e+00 
6.875000e-01 1.250000e-01 0.000000e+00 
7.187500e-01 1.250000e-01 0.000000e+00 
7.500000e-01 1.250000e-01 0.000000e+00 
7.812500e-01 1.250000e-01 0.000000e+00 
8.125000e-01 1.250000e-01 0.000000e+00 
8.437500e-01 1.250000e-01 0.000000e+00 
8.750000e-01 1.250000e-01 0.000000e+00 
9.062500e-01 1.250000e-01 0.000000e+00 
9.375000e-01 1.250000e-01 0.000000e+00 
9.687500e-01 1.250000e-01 0.000000e+00 
1.000000e+00 1.250000e-01 0.000000e+00 
0.000000e+00 1.562500e-01 0.000000e+00 
3.125000e-02 1.562500e-01 0.000000e+00 
6.250000e-02 1.562500e-01 0.000000e+00 
9.375000e-02 1.562500e-01 0.000000e+00 
1.250000e-01 1.562500e-01 0.000000e+00 
1.562500e-01 1.562500e-01 0.000000e+00 
1.875000e-01 1.562500e-01 0.000000e+00 
2.187500e-01 1.562500e-01 0.000000e+00 
2.500000e-01 1.562500e-01 0.000000e+00 
2.812500e-01 1.562500e-01 0.000000e+00 
3.125000e-01 1.562500e-01 0.000000e+00 
3.437500e-01 1.562500e-01 0.000000e+00 
3.750000e-01 1.562500e-01 0.000000e+00 
4.062500e-01 1.562500e-01 0.000000e+00 
4.375000e-01 1.562500e-01 0.000000e+00 
4.687500e-01 1.562500e-01 0.000000e+00 
5.000000e-01 1.562500e-01 0.000000e+00 
5.312500e-01 1.562500e-01 0.000000e+00 
5.625000e-01 1.562500e-01 0.000000e+00 
5.937500e-01 1.562500e-01 0.000000e+00 
6.250000e-01 1.562500e-01 0.000000e+00 
6.562500e-01 1.562500e-01 0.000000e+00 
6.875000e-01 1.562500e-01 0.000000e+00 
7.187500e-01 1.562500e-01 0.000000e+00 
7.500000e-01 1.562500e-01 0.000000e+00 
7.812500e-01 1.562500e-01 0.000000e+00 
8.125000e-01 1.562500e-01 0.000000e+00 
8.437500e-01 1.562500e-01 0.000000e+00 
8.750000e-01 1.562500e-01 0.000000e+00 
9.062500e-01 1.562500e-01 0.000000e+00 
9.375000e-01 1.562500e-01 0.000000e+00 
9.687500e-01 1.562500e-01 0.000000e+00 
1.000000e+00 1.562500e-01 0.000000e+00 
0.000000e+00 1.875000e-01 0.000000e+00 
3.125000e-02 1.875000e-01 0.000000e+00 
6.250000e-02 1.875000e-01 0.000000e+00 
9.375000e-02 1.875000e-01 0.000000e+00 
1.250000e-01 1.875000e-01 0.000000e+00 
1.562500e-01 1.875000e-01 0.000000e+00 
1.875000e-01 1.875000e-01 0.000000e+00 
2.187500e-01 1.875000e-01 0.000000e+00 
2.500000e-01 1.875000e-01 0.000000e+00 
2.812500e-01 1.875000e-01 0.000000e+00 
3.125000e-01 1.875000e-01 0.000000e+00 
3.437500e-01 1.875000e-01 0.000000e+00 
3.750000e-01 1.875000e-01 0.000000e+00 
4.062500e-01 1.875000e-01 0.000000e+00 
4.375000e-01 1.875000e-01 0.000000e+00 
4.687500e-01 1.875000e-01 0.000000e+00 
5.000000e-01 1.875000e-01 0.000000e+00 
5.312500e-01 1.875000e-01 0.000000e+00 
5.625000e-01 1.875000e-01 0.000000e+00 
5.937500e-01 1.875000e-01 0.000000e+00 
6.250000e-01 1.875000e-01 0.000000e+00 
6.562500e-01 1.875000e-01 0.000000e+00 
6.875000e-01 1.875000e-01 0.000000e+00 
7.187500e-01 1.875000e-01 0.000000e+00 
7.500000e-01 1.875000e-01 0.000000e+00 
7.812500e-01 1.875000e-01 0.000000e+00 
8.125000e-01 1.875000e-01 0.000000e+00 
8.437500e-01 1.875000e-01 0.000000e+00 
8.750000e-01 1.875000e-01 0.000000e+00 
9.062500e-01 1.875000e-01 0.000000e+00 
9.375000e-01 1.875000e-01 0.000000e+00 
9.687500e-01 1.875000e-01 0.000000e+00 
1.000000e+00 1.875000e-01 0.000000e+00 
0.000000e+00 2.187500e-01 0.000000e+00 
3.125000e-02 2.187500e-01 0.000000e+00 
6.250000e-02 2.187500e-01 0.000000e+00 
9.375000e-02 2.187500e-01 0.000000e+00 
1.250000e-01 2.187500e-01 0.000000e+00 
1.562500e-01 2.187500e-01 0.000000e+00 
1.875000e-01 2.187500e-01 0.000000e+00 
2.187500e-01 2.187500e-01 0.000000e+00 
2.500000e-01 2.187500e-01 0.000000e+00 
2.812500e-01 2.187500e-01 0.000000e+00 
3.125000e-01 2.187500e-01 0.000000e+00 
3.437500e-01 2.187500e-01 0.000000e+00 
3.750000e-01 2.187500e-01 0.000000e+00 
[...]
<CellData Scalars='scalars'>
<DataArray type='Float32' Name='p' Format='ascii'> 
-2.288221e+01
-2.310927e+01
-2.354743e+01
-2.416663e+01
-2.492483e+01
-2.576958e+01
-2.664163e+01
-2.748258e+01
-2.824596e+01
-2.890617e+01
-2.945938e+01
-2.991677e+01
-3.029621e+01
-3.061650e+01
-3.089476e+01
-3.114579e+01
-3.138232e+01
-3.161554e+01
-3.185541e+01
-3.211067e+01
-3.238804e+01
-3.269058e+01
-3.301509e+01
-3.334909e+01
-3.366939e+01
-3.394539e+01
-3.414911e+01
-3.426870e+01
-3.431553e+01
-3.431724e+01
-3.430236e+01
-3.429044e+01
-2.462525e+01
-2.469210e+01
-2.481941e+01
-2.499789e+01
-2.522057e+01
-2.548661e+01
-2.579936e+01
-2.615778e+01
-2.654822e+01
-2.694710e+01
-2.733077e+01
-2.768382e+01
-2.800128e+01
-2.828620e+01
-2.854584e+01
-2.878898e+01
-2.902424e+01
-2.925938e+01
-2.950064e+01
-2.975216e+01
-3.001498e+01
-3.028588e+01
-3.055633e+01
-3.081243e+01
-3.103671e+01
-3.121164e+01
-3.132481e+01
-3.137442e+01
-3.136988e+01
-3.132652e+01
-3.126305e+01
-3.121596e+01
-2.417355e+01
-2.426772e+01
-2.444339e+01
-2.467597e+01
-2.493322e+01
-2.518327e+01
-2.540392e+01
-2.558789e+01
-2.574495e+01
-2.589577e+01
-2.605813e+01
-2.623730e+01
-2.642920e+01
-2.662710e+01
-2.682651e+01
-2.702573e+01
-2.722523e+01
-2.742594e+01
-2.762833e+01
-2.783113e+01
-2.803094e+01
-2.822179e+01
-2.839573e+01
-2.854385e+01
-2.865784e+01
-2.873137e+01
-2.875914e+01
-2.873612e+01
-2.865712e+01
-2.852413e+01
-2.835573e+01
-2.823615e+01
-2.260474e+01
-2.270879e+01
-2.290922e+01
-2.318733e+01
-2.351153e+01
-2.384362e+01
-2.414827e+01
-2.440113e+01
-2.459182e+01
-2.472788e+01
-2.483004e+01
-2.492140e+01
-2.501702e+01
-2.512327e+01
-2.524005e+01
-2.536498e+01
-2.549471e+01
-2.562631e+01
-2.575660e+01
-2.588233e+01
-2.599949e+01
-2.610407e+01
-2.619259e+01
-2.626366e+01
-2.631756e+01
-2.635208e+01
-2.635451e+01
-2.629947e+01
-2.615736e+01
-2.591638e+01
-2.560901e+01
-2.539721e+01
-2.089091e+01
-2.098853e+01
-2.118459e+01
-2.147056e+01
-2.181879e+01
-2.218420e+01
-2.252101e+01
-2.279727e+01
-2.300219e+01
-2.314204e+01
-2.323443e+01
-2.329896e+01
-2.335277e+01
-2.340644e+01
-2.346556e+01
-2.353099e+01
-2.360179e+01
-2.367529e+01
-2.374888e+01
-2.381927e+01
-2.388369e+01
-2.393965e+01
-2.398653e+01
-2.402546e+01
-2.405828e+01
-2.408165e+01
-2.407913e+01
-2.401331e+01
-2.383074e+01
-2.349590e+01
-2.305882e+01
-2.276367e+01
-1.911166e+01
-1.919652e+01
-1.937979e+01
-1.966734e+01
-2.003066e+01
-2.041000e+01
-2.074609e+01
-2.100830e+01
-2.119365e+01
-2.131595e+01
-2.139286e+01
-2.144199e+01
-2.147666e+01
-2.150715e+01
-2.153902e+01
-2.157557e+01
-2.161701e+01
-2.166277e+01
-2.171064e+01
-2.175833e+01
-2.180260e+01
-2.184093e+01
-2.187151e+01
-2.189462e+01
-2.191100e+01
-2.191853e+01
-2.190288e+01
-2.182425e+01
-2.161582e+01
-2.122356e+01
-2.071638e+01
-2.038337e+01
-1.728608e+01
-1.735468e+01
-1.752328e+01
-1.781343e+01
-1.819043e+01
-1.857288e+01
-1.889296e+01
-1.912613e+01
-1.928167e+01
-1.937914e+01
-1.943857e+01
-1.947474e+01
-1.949952e+01
-1.952030e+01
-1.954272e+01
-1.956907e+01
-1.960075e+01
-1.963681e+01
-1.967603e+01
-1.971540e+01
-1.975190e+01
-1.978173e+01
-1.980265e+01
-1.981369e+01
-1.981583e+01
-1.980793e+01
-1.977819e+01
-1.968735e+01
-1.946593e+01
-1.905966e+01
-1.856132e+01
-1.824746e+01
-1.543571e+01
-1.548930e+01
-1.564760e+01
-1.594515e+01
-1.633174e+01
-1.670608e+01
-1.699811e+01
-1.719621e+01
-1.731892e+01
-1.739172e+01
-1.743369e+01
-1.745911e+01
-1.747654e+01
-1.749277e+01
-1.751107e+01
-1.753403e+01
-1.756169e+01
-1.759386e+01
-1.762841e+01
-1.766310e+01
-1.769410e+01
-1.771798e+01
-1.773147e+01
-1.773381e+01
-1.772581e+01
-1.770780e+01
-1.766945e+01
-1.757419e+01
-1.735707e+01
-1.697973e+01
-1.655006e+01
-1.629264e+01
-1.357503e+01
-1.361872e+01
-1.377572e+01
-1.408312e+01
-1.447150e+01
-1.482464e+01
-1.508092e+01
-1.524050e+01
-1.533110e+01
-1.537947e+01
-1.540561e+01
-1.542055e+01
-1.543214e+01
-1.544419e+01
-1.545994e+01
-1.547992e+01
-1.550472e+01
-1.553287e+01
-1.556316e+01
-1.559265e+01
-1.561853e+01
-1.563673e+01
-1.564448e+01
-1.564050e+01
-1.562655e+01
-1.560357e+01
-1.556328e+01
-1.547327e+01
-1.527976e+01
-1.496459e+01
-1.462975e+01
-1.443785e+01
-1.171357e+01
-1.175495e+01
-1.191882e+01
-1.223310e+01
-1.260906e+01
-1.292951e+01
-1.314489e+01
-1.326770e+01
-1.332812e+01
-1.335532e+01
-1.336693e+01
-1.337347e+01
-1.337928e+01
-1.338800e+01
-1.340037e+01
-1.341741e+01
-1.343801e+01
-1.346164e+01
-1.348617e+01
-1.351000e+01
-1.352993e+01
-1.354293e+01
-1.354559e+01
-1.353745e+01
-1.352038e+01
-1.349665e+01
-1.345952e+01
-1.338351e+01
-1.322934e+01
-1.299334e+01
-1.275224e+01
-1.261713e+01
-9.860902e+00
-9.904679e+00
-1.007811e+01
-1.038840e+01
-1.073683e+01
-1.101460e+01
-1.118946e+01
-1.127919e+01
-1.131543e+01
-1.132483e+01
-1.132586e+01
-1.132526e+01
-1.132695e+01
-1.133172e+01
-1.134091e+01
-1.135354e+01
-1.136951e+01
-1.138705e+01
-1.140541e+01
-1.142247e+01
-1.143660e+01
-1.144431e+01
-1.144301e+01
-1.143191e+01
-1.141423e+01
-1.139235e+01
-1.136219e+01
-1.130620e+01
-1.120034e+01
-1.104462e+01
-1.088275e+01
-1.079049e+01
-8.033813e+00
-8.075021e+00
-8.247722e+00
-8.539156e+00
-8.845141e+00
-9.075932e+00
-9.212282e+00
-9.276458e+00
-9.294579e+00
-9.292299e+00
-9.285484e+00
-9.280658e+00
-9.278203e+00
-9.279736e+00
-9.284465e+00
-9.292589e+00
-9.302499e+00
-9.313894e+00
-9.325121e+00
-9.335734e+00
-9.343759e+00
-9.347050e+00
-9.342199e+00
-9.329709e+00
-9.312875e+00
-9.294867e+00
-9.273738e+00
-9.241158e+00
-9.185009e+00
-9.100707e+00
-9.000884e+00
-8.939460e+00
-6.254217e+00
-6.274234e+00
-6.422834e+00
-6.675715e+00
-6.929221e+00
-7.111092e+00
-7.214581e+00
-7.259164e+00
-7.267843e+00
-7.258576e+00
-7.248240e+00
-7.239817e+00
-7.234461e+00
-7.231770e+00
-7.232323e+00
-7.234619e+00
-7.238714e+00
-7.243109e+00
-7.247820e+00
-7.251638e+00
-7.254364e+00
-7.253331e+00
-7.245995e+00
-7.232903e+00
-7.218457e+00
-7.205099e+00
-7.194276e+00
-7.185558e+00
-7.175196e+00
-7.149420e+00
-7.097075e+00
-7.058298e+00
-4.535359e+00
-4.509851e+00
-4.601615e+00
-4.794937e+00
-4.987429e+00
-5.123019e+00
-5.198270e+00
-5.230241e+00
-5.234673e+00
-5.225620e+00
-5.213321e+00
-5.203011e+00
-5.194136e+00
-5.187951e+00
-5.183078e+00
-5.179981e+00
-5.177313e+00
-5.175442e+00
-5.173239e+00
-5.171144e+00
-5.168323e+00
-5.163765e+00
-5.154085e+00
-5.141705e+00
-5.130037e+00
-5.121910e+00
-5.121437e+00
-5.135354e+00
-5.163726e+00
-5.183654e+00
-5.167835e+00
-5.146755e+00
-2.861695e+00
-2.780028e+00
-2.786432e+00
-2.897706e+00
-3.024381e+00
-3.115820e+00
-3.169293e+00
-3.192877e+00
-3.198043e+00
-3.192454e+00
-3.181652e+00
-3.168926e+00
-3.157736e+00
-3.146792e+00
-3.137056e+00
-3.127406e+00
-3.118662e+00
-3.109836e+00
-3.101645e+00
-3.093286e+00
-3.085509e+00
-3.076962e+00
-3.065753e+00
-3.054377e+00
-3.045736e+00
-3.042435e+00
-3.052217e+00
-3.086027e+00
-3.145296e+00
-3.199441e+00
-3.212086e+00
-3.205653e+00
-1.180861e+00
-1.066723e+00
-9.778674e-01
-9.905466e-01
-1.045716e+00
-1.097368e+00
-1.132584e+00
-1.153026e+00
-1.161167e+00
-1.161801e+00
-1.152994e+00
-1.139426e+00
-1.124324e+00
-1.109195e+00
-1.093170e+00
-1.077585e+00
-1.061707e+00
-1.046692e+00
-1.031830e+00
-1.018047e+00
-1.004646e+00
-9.921372e-01
-9.793583e-01
-9.692278e-01
-9.626048e-01
-9.640751e-01
-9.831492e-01
-1.033736e+00
-1.115795e+00
-1.194260e+00
-1.228777e+00
-1.234720e+00
4.331957e-01
6.157332e-01
8.181577e-01
9.203133e-01
9.394863e-01
9.265627e-01
9.049848e-01
8.862709e-01
8.724037e-01
8.673134e-01
8.723589e-01
8.869572e-01
9.051259e-01
9.260103e-01
9.476646e-01
9.705092e-01
9.928362e-01
1.015101e+00
1.035968e+00
1.056051e+00
1.074484e+00
1.092057e+00
1.106132e+00
1.116516e+00
1.121434e+00
1.116056e+00
1.088589e+00
1.025268e+00
9.281518e-01
8.344551e-01
7.841397e-01
7.681591e-01
2.009575e+00
2.267559e+00
2.598098e+00
2.825747e+00
2.924785e+00
2.948266e+00
2.940099e+00
2.920761e+00
2.903228e+00
2.893283e+00
2.896734e+00
2.910832e+00
2.932911e+00
2.958443e+00
2.987027e+00
3.016269e+00
3.046290e+00
3.075172e+00
3.103246e+00
3.129242e+00
3.153954e+00
3.176357e+00
3.193409e+00
3.204567e+00
3.209034e+00
3.200180e+00
3.166316e+00
3.094579e+00
2.990314e+00
2.889832e+00
2.829991e+00
2.806750e+00
3.596949e+00
3.914538e+00
4.361987e+00
4.719183e+00
4.901174e+00
4.963838e+00
4.967694e+00
4.950356e+00
4.929477e+00
4.918218e+00
4.919943e+00
4.935541e+00
4.959880e+00
4.991024e+00
5.025173e+00
5.061952e+00
5.098762e+00
5.135570e+00
5.170455e+00
5.203817e+00
5.234740e+00
5.262953e+00
5.284020e+00
5.297820e+00
5.302444e+00
5.291644e+00
5.253626e+00
5.178839e+00
5.075021e+00
4.975885e+00
4.912876e+00
4.885690e+00
5.212826e+00
5.562908e+00
6.105879e+00
6.589442e+00
6.863040e+00
6.967121e+00
6.987202e+00
6.972952e+00
6.953703e+00
6.942180e+00
6.945773e+00
6.962280e+00
6.990442e+00
7.025407e+00
7.066050e+00
7.108932e+00
7.153684e+00
7.197692e+00
7.240896e+00
7.281579e+00
7.320178e+00
7.354578e+00
7.381597e+00
7.399138e+00
7.405663e+00
7.394355e+00
7.355787e+00
7.283491e+00
7.187584e+00
7.096961e+00
7.036937e+00
7.009289e+00
6.848041e+00
7.211813e+00
7.819258e+00
8.426980e+00
8.801419e+00
8.956355e+00
8.995878e+00
8.991449e+00
8.976474e+00
8.970072e+00
8.976174e+00
8.996674e+00
9.027461e+00
9.067540e+00
9.112834e+00
9.162764e+00
9.214155e+00
9.266651e+00
9.317759e+00
9.367433e+00
9.413974e+00
9.456466e+00
9.490259e+00
9.513498e+00
9.523193e+00
9.514167e+00
9.478924e+00
9.415175e+00
9.333437e+00
9.257216e+00
9.205271e+00
9.180369e+00
8.498223e+00
8.859790e+00
9.495372e+00
1.021804e+01
1.071098e+01
1.092665e+01
1.099609e+01
1.100653e+01
1.100375e+01
1.100482e+01
1.101829e+01
1.104272e+01
1.107866e+01
1.112230e+01
1.117342e+01
1.122864e+01
1.128768e+01
1.134758e+01
1.140796e+01
1.146644e+01
1.152267e+01
1.157379e+01
1.161616e+01
1.164604e+01
1.166134e+01
1.165741e+01
1.163034e+01
1.158029e+01
1.151757e+01
1.145947e+01
1.141917e+01
1.139935e+01
1.018606e+01
1.051646e+01
1.112729e+01
1.195480e+01
1.258197e+01
1.287741e+01
1.298698e+01
1.302420e+01
1.303874e+01
1.305462e+01
1.307689e+01
1.310946e+01
1.314993e+01
1.319928e+01
1.325459e+01
1.331623e+01
1.338132e+01
1.344964e+01
1.351836e+01
1.358688e+01
1.365264e+01
1.371387e+01
1.376509e+01
1.380350e+01
1.382631e+01
1.383136e+01
1.381655e+01
1.378436e+01
1.374302e+01
1.370462e+01
1.367753e+01
1.366403e+01
1.195216e+01
1.219471e+01
1.272499e+01
1.363170e+01
1.440872e+01
1.480306e+01
1.497215e+01
1.504604e+01
1.508902e+01
1.512334e+01
1.516075e+01
1.520214e+01
1.525086e+01
1.530513e+01
1.536665e+01
1.543323e+01
1.550551e+01
1.558084e+01
1.565878e+01
1.573644e+01
1.581263e+01
1.588349e+01
1.594453e+01
1.599206e+01
1.602510e+01
1.604193e+01
1.604280e+01
1.603018e+01
1.601049e+01
1.599107e+01
1.597709e+01
1.597003e+01
1.381729e+01
1.391771e+01
1.431941e+01
1.526026e+01
1.618260e+01
1.670195e+01
1.694852e+01
1.707603e+01
1.715423e+01
1.721591e+01
1.727061e+01
1.732650e+01
1.738407e+01
1.744708e+01
1.751446e+01
1.758832e+01
1.766683e+01
1.775054e+01
1.783664e+01
1.792416e+01
1.800998e+01
1.809060e+01
1.816051e+01
1.821843e+01
1.826277e+01
1.829354e+01
1.831103e+01
1.831787e+01
1.831782e+01
1.831529e+01
1.831291e+01
1.831169e+01
1.574873e+01
1.571156e+01
1.596904e+01
1.686920e+01
1.790844e+01
1.856711e+01
1.891511e+01
1.910687e+01
1.923135e+01
1.932299e+01
1.940193e+01
1.947395e+01
1.954636e+01
1.961974e+01
1.969789e+01
1.978010e+01
1.986835e+01
1.996078e+01
2.005732e+01
2.015456e+01
2.025035e+01
2.033927e+01
2.041865e+01
2.048646e+01
2.054266e+01
2.058693e+01
2.062038e+01
2.064429e+01
2.066097e+01
2.067226e+01
2.067953e+01
2.068312e+01
1.766142e+01
1.757237e+01
1.772549e+01
1.851871e+01
1.960266e+01
2.040154e+01
2.086193e+01
2.112930e+01
2.129902e+01
2.142469e+01
2.152701e+01
2.162121e+01
2.171092e+01
2.180198e+01
2.189464e+01
2.199222e+01
2.209390e+01
2.220090e+01
2.231061e+01
2.242154e+01
2.252872e+01
2.262870e+01
2.271815e+01
2.279657e+01
2.286359e+01
2.292022e+01
2.296696e+01
2.300489e+01
2.303457e+01
2.305670e+01
2.307142e+01
2.307882e+01
1.946366e+01
1.942280e+01
1.957572e+01
2.024911e+01
2.129587e+01
2.220073e+01
2.278251e+01
2.312028e+01
2.332918e+01
2.347511e+01
2.359869e+01
2.371203e+01
2.382434e+01
2.393645e+01
2.405242e+01
2.417183e+01
2.429685e+01
2.442577e+01
2.455827e+01
2.468997e+01
2.481718e+01
2.493471e+01
2.504029e+01
2.513265e+01
2.521306e+01
2.528245e+01
2.534214e+01
2.539234e+01
2.543320e+01
2.546424e+01
2.548519e+01
2.549572e+01
2.107180e+01
2.114229e+01
2.138547e+01
2.198912e+01
2.293167e+01
2.389681e+01
2.461082e+01
2.504140e+01
2.527130e+01
2.541701e+01
2.553834e+01
2.566306e+01
2.579279e+01
2.593009e+01
2.607306e+01
2.622323e+01
2.637863e+01
2.653971e+01
2.670319e+01
2.686664e+01
2.702427e+01
2.717156e+01
2.730431e+01
2.742192e+01
2.752488e+01
2.761530e+01
2.769425e+01
2.776221e+01
2.781826e+01
2.786149e+01
2.789083e+01
2.790567e+01
2.240257e+01
2.258590e+01
2.296251e+01
2.353260e+01
2.430362e+01
2.519661e+01
2.605560e+01
2.670361e+01
2.703973e+01
2.716252e+01
2.725077e+01
2.736061e+01
2.749483e+01
2.764656e+01
2.781269e+01
2.798813e+01
2.817166e+01
2.835917e+01
2.854846e+01
2.873391e+01
2.891222e+01
2.908079e+01
2.923883e+01
2.938435e+01
2.951768e+01
2.963936e+01
2.974958e+01
2.984654e+01
2.992807e+01
2.999157e+01
3.003512e+01
3.005723e+01
2.336336e+01
2.362784e+01
2.410646e+01
2.469791e+01
2.527158e+01
2.585589e+01
2.660749e+01
2.771476e+01
2.843270e+01
2.857447e+01
2.862785e+01
2.869074e+01
2.878732e+01
2.891669e+01
2.906378e+01
2.921620e+01
2.935930e+01
2.948074e+01
2.957064e+01
2.963192e+01
2.967486e+01
2.971432e+01
2.976246e+01
2.982636e+01
2.990468e+01
2.999132e+01
3.007899e+01
3.016201e+01
3.023524e+01
3.029450e+01
3.033612e+01
3.035761e+01
2.387147e+01
2.417428e+01
2.470398e+01
2.532249e+01
2.585327e+01
2.613432e+01
2.642966e+01
2.782467e+01
2.926903e+01
2.965068e+01
2.977282e+01
2.974976e+01
2.965579e+01
2.952593e+01
2.937563e+01
2.921684e+01
2.907105e+01
2.895835e+01
2.892727e+01
2.899645e+01
2.909222e+01
2.914570e+01
2.916367e+01
2.916826e+01
2.916244e+01
2.914171e+01
2.910661e+01
2.906267e+01
2.901719e+01
2.897681e+01
2.894683e+01
2.893089e+01
</DataArray>
<DataArray type='Float32' Name='dTdx' Format='ascii'> 
3.760847e-02
1.103327e-01
1.760240e-01
2.315305e-01
2.758597e-01
3.098567e-01
3.341538e-01
3.469625e-01
3.450623e-01
3.274362e-01
2.966788e-01
2.573924e-01
2.142823e-01
1.711340e-01
1.305715e-01
9.427633e-02
6.336272e-02
3.873475e-02
2.137470e-02
1.256598e-02
1.405939e-02
2.811259e-02
5.724572e-02
1.034282e-01
1.664096e-01
2.414487e-01
3.180310e-01
3.830607e-01
4.262955e-01
4.523821e-01
5.019080e-01
2.688846e-01
7.531511e-02
2.202128e-01
3.494387e-01
4.570872e-01
5.422748e-01
6.078272e-01
6.565616e-01
6.872712e-01
6.948826e-01
6.754047e-01
6.297728e-01
5.635336e-01
4.844870e-01
4.004404e-01
3.179309e-01
2.419107e-01
1.760134e-01
1.230336e-01
8.543830e-02
6.582924e-02
6.739952e-02
9.425383e-02
1.515709e-01
2.449045e-01
3.784798e-01
5.507249e-01
7.503930e-01
9.537368e-01
1.132407e+00
1.273825e+00
1.487137e+00
8.193424e-01
8.385616e-02
2.392878e-01
3.628411e-01
4.469086e-01
4.963202e-01
5.230835e-01
5.393390e-01
5.520643e-01
5.612507e-01
5.619636e-01
5.486711e-01
5.187941e-01
4.737475e-01
4.179491e-01
3.571421e-01
2.969955e-01
2.423134e-01
1.967811e-01
1.630825e-01
1.432367e-01
1.391848e-01
1.535577e-01
1.909749e-01
2.593125e-01
3.714731e-01
5.436053e-01
7.916663e-01
1.114290e+00
1.487842e+00
1.863092e+00
2.380586e+00
1.370605e+00
1.221119e-01
3.391900e-01
4.866548e-01
5.501703e-01
5.437144e-01
4.967517e-01
4.388013e-01
3.898585e-01
3.582244e-01
3.427906e-01
3.370383e-01
3.332535e-01
3.256824e-01
3.118283e-01
2.921005e-01
2.686430e-01
2.441132e-01
2.208201e-01
2.003331e-01
1.835159e-01
1.709744e-01
1.639125e-01
1.657183e-01
1.843662e-01
2.364795e-01
3.511143e-01
5.721292e-01
9.432371e-01
1.482647e+00
2.151697e+00
3.075168e+00
1.856298e+00
1.857889e-01
5.107431e-01
7.175690e-01
7.849823e-01
7.391941e-01
6.293327e-01
5.019340e-01
3.878175e-01
3.012817e-01
2.448427e-01
2.141797e-01
2.018265e-01
1.998937e-01
2.018929e-01
2.035151e-01
2.024869e-01
1.979287e-01
1.896498e-01
1.776556e-01
1.619569e-01
1.426814e-01
1.205155e-01
9.767084e-02
8.001836e-02
8.143048e-02
1.322348e-01
2.892946e-01
6.398333e-01
1.260584e+00
2.198493e+00
3.507128e+00
2.198746e+00
2.552203e-01
6.961382e-01
9.638631e-01
1.033968e+00
9.517574e-01
7.900903e-01
6.114132e-01
4.526565e-01
3.284835e-01
2.403808e-01
1.837870e-01
1.518655e-01
1.372759e-01
1.331795e-01
1.338820e-01
1.351162e-01
1.339861e-01
1.287106e-01
1.183171e-01
1.023720e-01
8.076976e-02
5.364752e-02
2.163310e-02
-1.273678e-02
-4.097212e-02
-3.789771e-02
5.552848e-02
3.546491e-01
9.902971e-01
2.133133e+00
3.689986e+00
2.354657e+00
3.259157e-01
8.825961e-01
1.205349e+00
1.268479e+00
1.141049e+00
9.238904e-01
6.972426e-01
5.034046e-01
3.548676e-01
2.488150e-01
1.773025e-01
1.318896e-01
1.050427e-01
9.035995e-02
8.257659e-02
7.757575e-02
7.236999e-02
6.499492e-02
5.429837e-02
3.962863e-02
2.043749e-02
-4.126974e-03
-3.539240e-02
-7.431421e-02
-1.176249e-01
-1.462696e-01
-1.016843e-01
1.459769e-01
7.759696e-01
2.058395e+00
3.683754e+00
2.337218e+00
3.939401e-01
1.060903e+00
1.432667e+00
1.482104e+00
1.302847e+00
1.025258e+00
7.486722e-01
5.211749e-01
3.527330e-01
2.354090e-01
1.567657e-01
1.055203e-01
7.288718e-02
5.235478e-02
3.917060e-02
2.992568e-02
2.226313e-02
1.462835e-02
5.982590e-03
-4.564345e-03
-1.820817e-02
-3.694993e-02
-6.394956e-02
-1.030201e-01
-1.549075e-01
-2.048528e-01
-1.937060e-01
1.729370e-02
6.521590e-01
2.013287e+00
3.553946e+00
2.198655e+00
4.567598e-01
1.225591e+00
1.641138e+00
1.672585e+00
1.436742e+00
1.094608e+00
7.662471e-01
5.059911e-01
3.207396e-01
1.967411e-01
1.165848e-01
6.577972e-02
3.390953e-02
1.396738e-02
1.393633e-03
-6.725087e-03
-1.224383e-02
-1.640609e-02
-2.023627e-02
-2.493554e-02
-3.231928e-02
-4.531512e-02
-6.842596e-02
-1.074466e-01
-1.657217e-01
-2.302550e-01
-2.395813e-01
-4.520954e-02
6.112880e-01
1.992690e+00
3.353233e+00
1.998206e+00
5.136807e-01
1.375725e+00
1.831500e+00
1.842863e+00
1.547033e+00
1.136677e+00
7.549519e-01
4.634050e-01
2.652202e-01
1.397253e-01
6.372629e-02
1.909531e-02
-6.421005e-03
-2.047286e-02
-2.761031e-02
-3.048196e-02
-3.067819e-02
-2.931871e-02
-2.749362e-02
-2.664707e-02
-2.898257e-02
-3.797287e-02
-5.893230e-02
-9.885492e-02
-1.623173e-01
-2.358923e-01
-2.540589e-01
-5.687505e-02
6.286794e-01
1.978070e+00
3.119322e+00
1.781272e+00
5.654889e-01
1.513280e+00
2.006600e+00
1.996833e+00
1.638777e+00
1.157660e+00
7.221833e-01
4.020343e-01
1.957878e-01
7.444209e-02
7.996629e-03
-2.579874e-02
-4.114011e-02
-4.627594e-02
-4.571513e-02
-4.186948e-02
-3.612023e-02
-2.948375e-02
-2.304861e-02
-1.832461e-02
-1.763459e-02
-2.466611e-02
-4.512777e-02
-8.653244e-02
-1.534162e-01
-2.302449e-01
-2.460779e-01
-3.130342e-02
6.783438e-01
1.955224e+00
2.877011e+00
1.574261e+00
6.139145e-01
1.641996e+00
2.170216e+00
2.138174e+00
1.716302e+00
1.163184e+00
6.752080e-01
3.306663e-01
1.220877e-01
1.037988e-02
-4.230438e-02
-6.256510e-02
-6.630053e-02
-6.201767e-02
-5.393312e-02
-4.408238e-02
-3.356086e-02
-2.320984e-02
-1.401112e-02
-7.393290e-03
-5.620376e-03
-1.238114e-02
-3.344054e-02
-7.614922e-02
-1.438176e-01
-2.175495e-01
-2.207186e-01
2.000246e-02
7.405859e-01
1.918289e+00
2.640515e+00
1.388310e+00
6.609129e-01
1.766109e+00
2.326238e+00
2.269846e+00
1.782699e+00
1.157563e+00
6.200192e-01
2.565918e-01
5.167269e-02
-4.586776e-02
-8.246854e-02
-8.877290e-02
-8.168641e-02
-6.938260e-02
-5.543243e-02
-4.132838e-02
-2.781001e-02
-1.550522e-02
-5.252535e-03
1.645381e-03
3.049456e-03
-4.591939e-03
-2.675849e-02
-6.991064e-02
-1.350561e-01
-1.991321e-01
-1.810658e-01
8.802353e-02
8.035636e-01
1.867162e+00
2.416020e+00
1.225165e+00
7.082489e-01
1.889660e+00
2.478452e+00
2.394243e+00
1.839916e+00
1.143726e+00
5.610986e-01
1.851877e-01
-1.054771e-02
-9.105148e-02
-1.114053e-01
-1.053133e-01
-8.965722e-02
-7.164163e-02
-5.392159e-02
-3.738022e-02
-2.241604e-02
-9.481816e-03
6.832951e-04
6.864164e-03
7.048271e-03
-2.055554e-03
-2.526214e-02
-6.741233e-02
-1.263315e-01
-1.745694e-01
-1.291344e-01
1.663677e-01
8.614988e-01
1.803914e+00
2.204381e+00
1.082004e+00
7.573803e-01
2.016134e+00
2.630261e+00
2.513254e+00
1.888999e+00
1.123531e+00
5.017366e-01