<VTKFile type='UnstructuredGrid' version='0.1' byte_order='BigEndian'> 
<UnstructuredGrid> 
<Piece NumberOfPoints='   353 ' NumberOfCells='   637 '> 
<Points> 
<DataArray type='Float32' NumberOfComponents='3' Format='ascii'> 
0.000000e+00 0.000000e+00 0.000000e+00 
0.000000e+00 5.000000e+04 0.000000e+00 
2.000000e+05 5.000000e+04 0.000000e+00 
2.000000e+05 0.000000e+00 0.000000e+00 
1.310720e+05 0.000000e+00 4.310527e+00 
1.000000e+05 5.000000e+04 1.415875e+03 
1.655360e+05 0.000000e+00 2.399857e-02 
1.569200e+05 0.000000e+00 8.742861e-02 
1.827680e+05 0.000000e+00 6.380430e-02 
1.511714e+05 6.663383e+03 5.035622e-02 
1.500000e+05 5.000000e+04 4.998088e-02 
1.396880e+05 0.000000e+00 -3.504509e-01 
1.396880e+05 2.532102e+04 4.153333e-01 
1.439960e+05 5.597312e+03 1.193428e-01 
1.526120e+05 2.094823e+03 6.847510e-03 
1.483040e+05 0.000000e+00 1.017012e-01 
1.566099e+05 5.543921e+03 1.152702e-02 
2.000000e+05 3.276800e+04 0.000000e+00 
1.444752e+05 1.042262e+04 9.920863e-03 
1.483179e+05 1.338016e+04 6.814826e-02 
1.396880e+05 1.119462e+04 1.038039e-01 
1.546754e+05 1.995101e+04 2.832101e-02 
1.569200e+05 1.108784e+04 9.496435e-02 
1.523211e+05 1.111634e+04 -1.218058e-03 
1.642561e+05 7.896923e+03 6.454040e-04 
1.614575e+05 3.391147e+03 8.583202e-02 
1.913840e+05 0.000000e+00 5.073795e-02 
1.641271e+05 1.762887e+04 7.566667e-03 
1.741520e+05 0.000000e+00 1.033332e-01 
1.619979e+05 1.273383e+04 8.683576e-02 
1.589537e+05 1.696852e+04 1.669900e-02 
1.353800e+05 5.597312e+03 -1.592187e+00 
6.553600e+04 0.000000e+00 1.224081e-02 
1.314330e+05 1.309166e+04 -1.603705e+01 
1.351254e+05 1.024977e+04 -8.776228e-01 
1.282498e+05 6.628621e+03 1.292932e+01 
1.146880e+05 0.000000e+00 1.410977e+03 
1.124309e+05 1.843517e+04 1.415157e+03 
9.830400e+04 0.000000e+00 1.415860e+03 
1.214360e+05 1.399995e+04 1.209971e+03 
1.228800e+05 0.000000e+00 1.149088e+03 
1.262599e+05 1.162409e+04 2.171784e+02 
1.209227e+05 6.872557e+03 1.173453e+03 
1.269760e+05 2.171186e+03 1.251211e+02 
1.143290e+05 1.092966e+04 1.405408e+03 
1.187840e+05 2.548444e+03 1.393981e+03 
1.165754e+05 1.549055e+04 1.404148e+03 
1.383830e+05 3.367874e+04 4.089693e-01 
1.183327e+05 2.235291e+04 1.398092e+03 
1.019938e+05 1.180280e+04 1.415901e+03 
1.267409e+05 2.072382e+04 4.188508e+01 
1.168967e+05 2.714785e+04 1.400571e+03 
1.083053e+05 1.339901e+04 1.415696e+03 
1.027280e+05 2.217572e+04 1.415909e+03 
1.064960e+05 0.000000e+00 1.415801e+03 
1.040703e+05 1.686826e+04 1.415861e+03 
9.534755e+04 1.748569e+04 1.415884e+03 
1.099109e+05 8.733897e+03 1.415404e+03 
1.229068e+05 2.344792e+04 1.117502e+03 
1.117799e+05 3.147145e+04 1.415006e+03 
1.184650e+05 3.190116e+04 1.381385e+03 
1.128892e+05 2.414895e+04 1.415263e+03 
1.081008e+05 2.165776e+04 1.415859e+03 
1.060078e+05 2.807192e+04 1.415872e+03 
1.250000e+05 5.000000e+04 3.715888e+02 
8.426815e+04 2.406956e+04 1.421036e+03 
9.713560e+04 2.914679e+04 1.415881e+03 
1.013526e+05 2.680108e+04 1.415923e+03 
9.662092e+04 2.325808e+04 1.415859e+03 
8.008965e+04 1.845415e+04 1.382056e+03 
5.000000e+04 5.000000e+04 1.780488e-02 
9.612128e+04 3.441540e+04 1.415902e+03 
7.555137e+04 8.686183e+03 8.497687e+02 
8.507841e+04 3.128206e+04 1.414773e+03 
9.073859e+04 2.673905e+04 1.415767e+03 
9.047435e+04 2.083293e+04 1.415732e+03 
8.915325e+04 1.507040e+04 1.415742e+03 
8.585091e+04 1.953601e+04 1.418573e+03 
8.231038e+04 3.799135e+04 1.418080e+03 
7.500000e+04 5.000000e+04 9.881448e+02 
6.037954e+04 8.109716e+03 4.762638e-02 
4.934371e+04 2.328941e+04 9.587422e-02 
1.005203e+05 4.159553e+04 1.415879e+03 
9.469874e+04 9.998989e+03 1.415939e+03 
1.013509e+05 3.321602e+04 1.415857e+03 
9.070152e+04 3.249041e+04 1.415961e+03 
8.750000e+04 5.000000e+04 1.415400e+03 
7.096717e+04 2.938589e+04 1.583142e+02 
7.697941e+04 2.513087e+04 1.282775e+03 
8.112958e+04 2.807391e+04 1.427775e+03 
6.595903e+04 1.593442e+04 8.507270e-04 
7.268989e+04 1.906988e+04 1.980592e+02 
7.182853e+04 2.422788e+04 1.044271e+02 
6.168282e+04 2.518453e+04 3.417874e-02 
6.688266e+04 2.605287e+04 2.462218e-02 
6.264723e+04 3.541252e+04 8.636906e-04 
6.503396e+04 2.112024e+04 4.109407e-03 
6.352261e+04 3.017052e+04 6.195481e-02 
4.915200e+04 0.000000e+00 9.838087e-02 
5.321168e+04 3.114274e+04 9.984858e-02 
6.089337e+04 1.770620e+04 5.035959e-02 
5.823810e+04 2.928803e+04 2.391511e-03 
9.953501e+04 6.093312e+03 1.415870e+03 
3.276800e+04 0.000000e+00 7.874031e-02 
9.770107e+04 1.351027e+04 1.415920e+03 
8.192000e+04 0.000000e+00 1.428491e+03 
5.796953e+04 2.179569e+04 2.295169e-02 
5.411296e+04 1.594841e+04 5.272365e-02 
9.011200e+04 0.000000e+00 1.415591e+03 
5.333060e+04 2.065986e+04 6.270014e-02 
5.413665e+04 2.591112e+04 2.626827e-02 
7.602709e+04 1.440340e+04 1.068113e+03 
7.050877e+04 1.198417e+04 5.766819e+01 
8.168267e+04 1.105441e+04 1.445632e+03 
6.525849e+04 1.053233e+04 2.919877e-02 
6.483972e+04 5.251476e+03 8.732371e-02 
7.372800e+04 0.000000e+00 8.047209e+02 
8.030694e+04 5.495120e+03 1.448930e+03 
8.626006e+04 1.149592e+04 1.416338e+03 
7.040374e+04 6.319545e+03 1.204652e+01 
5.848944e+04 1.302292e+04 7.046929e-02 
5.189415e+04 7.892811e+03 2.140725e-02 
6.963200e+04 1.879488e+03 3.362565e-02 
1.424909e+05 1.825782e+04 -1.896046e-02 
1.351976e+05 1.945132e+04 1.468970e+00 
1.485221e+05 1.954351e+04 7.142744e-02 
1.507482e+05 3.259003e+04 7.969949e-03 
1.511979e+05 2.580012e+04 8.004424e-02 
1.616825e+05 2.807525e+04 4.266820e-02 
1.597445e+05 2.266280e+04 2.591705e-02 
1.564493e+05 2.689586e+04 3.966793e-02 
1.453073e+05 2.881986e+04 8.119716e-02 
1.447661e+05 3.541197e+04 3.908351e-02 
1.447611e+05 2.343530e+04 6.033960e-02 
1.306402e+05 3.027233e+04 5.971689e+01 
1.512206e+05 4.133139e+04 9.151404e-02 
1.408122e+05 2.977730e+04 3.514541e-01 
1.187500e+05 5.000000e+04 1.374392e+03 
1.147692e+05 3.718187e+04 1.413439e+03 
1.491989e+05 3.705719e+04 9.470898e-02 
1.375000e+05 5.000000e+04 1.368308e+00 
1.243990e+05 3.998777e+04 6.500211e+02 
1.074106e+05 3.739633e+04 1.415836e+03 
1.395701e+05 4.192748e+04 1.133218e-01 
1.453874e+05 4.147522e+04 7.678886e-02 
1.125000e+05 5.000000e+04 1.414728e+03 
1.200601e+05 3.695115e+04 1.348084e+03 
1.407597e+05 3.754650e+04 6.419780e-02 
1.484014e+05 4.535468e+04 8.370920e-02 
1.437500e+05 5.000000e+04 4.507250e-02 
1.406250e+05 4.649968e+04 1.349222e-01 
1.383468e+05 1.581461e+04 8.979994e-01 
1.306339e+05 1.785875e+04 -2.055621e+01 
1.337495e+05 2.521163e+04 -8.628687e+00 
1.247668e+05 3.268755e+04 5.573252e+02 
1.220997e+05 2.841742e+04 1.175553e+03 
1.060909e+05 3.282715e+04 1.415853e+03 
1.062500e+05 5.000000e+04 1.415851e+03 
1.028045e+05 3.759101e+04 1.415930e+03 
1.232165e+05 4.508290e+04 1.200005e+03 
1.312500e+05 5.000000e+04 -2.688435e+01 
1.156250e+05 4.394330e+04 1.410022e+03 
1.031250e+05 4.597513e+04 1.415851e+03 
1.092868e+05 4.441657e+04 1.415762e+03 
1.198408e+05 4.171472e+04 1.376036e+03 
1.111733e+05 4.015155e+04 1.415643e+03 
1.707321e+05 1.284956e+04 2.176275e-02 
1.907575e+05 1.956923e+04 4.322659e-02 
1.815955e+05 2.853574e+04 3.370434e-02 
1.790829e+05 1.221776e+04 7.039391e-02 
1.708285e+05 1.993654e+04 1.831429e-02 
1.747315e+05 1.020703e+04 1.733507e-02 
1.751950e+05 1.633300e+04 3.740395e-02 
1.750000e+05 5.000000e+04 6.585620e-02 
1.771145e+05 2.310613e+04 8.247045e-02 
1.658400e+05 2.353894e+04 6.283486e-02 
1.715321e+05 3.292900e+04 9.598437e-02 
1.673157e+05 2.906467e+04 3.710048e-02 
1.728972e+05 2.720706e+04 6.863048e-03 
1.625000e+05 5.000000e+04 5.126906e-02 
1.576761e+05 3.365249e+04 4.025784e-02 
1.637238e+05 3.298379e+04 2.268272e-02 
1.767457e+05 3.114899e+04 6.518801e-02 
1.709898e+05 4.396635e+04 3.801151e-02 
1.768219e+05 3.989760e+04 2.543869e-02 
1.821641e+05 3.539788e+04 4.060387e-02 
1.856011e+05 3.165848e+04 9.184323e-02 
1.906627e+05 3.123909e+04 -6.863738e-03 
1.615916e+05 4.138255e+04 3.132748e-02 
1.810605e+05 1.832923e+04 2.315188e-02 
2.000000e+05 1.638400e+04 0.000000e+00 
1.676665e+05 3.845476e+04 4.616363e-02 
1.724762e+05 3.770440e+04 1.572021e-02 
1.687500e+05 5.000000e+04 9.734334e-02 
1.875000e+05 5.000000e+04 4.985646e-02 
1.819048e+05 2.371661e+04 6.438552e-02 
1.857289e+05 2.035739e+04 1.484698e-02 
1.870702e+05 1.247917e+04 4.661929e-02 
1.890939e+05 2.539104e+04 5.527172e-02 
2.000000e+05 2.457600e+04 0.000000e+00 
1.946993e+05 2.702178e+04 1.914474e-02 
1.840029e+05 4.300194e+04 5.403040e-02 
1.886643e+05 3.787438e+04 8.473826e-02 
1.760248e+05 4.496934e+04 7.847456e-02 
1.832577e+05 6.812341e+03 2.292047e-02 
1.784600e+05 3.733458e+03 5.091272e-02 
1.898875e+05 6.467890e+03 8.526294e-02 
1.870760e+05 2.410322e+03 4.512216e-02 
1.941270e+05 1.212068e+04 5.897656e-02 
2.000000e+05 8.192000e+03 0.000000e+00 
1.954521e+05 4.348304e+03 8.215507e-02 
1.962415e+05 2.048000e+04 4.878593e-02 
1.812500e+05 5.000000e+04 7.100424e-02 
2.000000e+05 4.138400e+04 0.000000e+00 
1.904306e+05 4.416269e+04 6.814912e-02 
1.943168e+05 3.967893e+04 1.927683e-02 
1.937500e+05 5.000000e+04 4.100748e-02 
1.968750e+05 4.569200e+04 2.189697e-02 
1.698440e+05 4.750437e+03 3.970105e-02 
1.907395e+05 1.507471e+04 1.952668e-02 
1.804201e+05 4.563305e+04 1.899411e-02 
1.743193e+05 5.659087e+03 5.643030e-02 
1.047716e+05 7.222340e+03 1.415852e+03 
1.105920e+05 3.433039e+03 1.415527e+03 
8.760935e+04 3.692402e+04 1.415847e+03 
8.616694e+04 4.345040e+04 1.415804e+03 
9.322272e+04 4.158723e+04 1.415943e+03 
8.125000e+04 5.000000e+04 1.439189e+03 
7.812500e+04 4.367292e+04 1.436859e+03 
9.226588e+04 3.702886e+04 1.415930e+03 
9.687460e+04 3.889152e+04 1.415927e+03 
9.375000e+04 5.000000e+04 1.415886e+03 
9.062500e+04 4.597295e+04 1.415870e+03 
9.687500e+04 4.558818e+04 1.415902e+03 
8.220222e+04 4.559442e+04 1.415190e+03 
6.935989e+04 4.351159e+04 6.163259e-02 
7.444533e+04 3.657988e+04 4.065713e+02 
6.250000e+04 5.000000e+04 4.124612e-02 
7.636883e+04 3.121210e+04 1.317102e+03 
7.803054e+04 3.922095e+04 1.362746e+03 
6.865041e+04 3.494381e+04 4.147179e-02 
8.070629e+04 3.340392e+04 1.450447e+03 
4.836011e+04 4.697869e+03 3.846524e-02 
5.734400e+04 0.000000e+00 3.995537e-02 
5.324800e+04 2.999702e+03 8.071773e-02 
9.404796e+04 4.246006e+03 1.415886e+03 
8.817387e+04 5.743883e+03 1.414779e+03 
4.378652e+04 1.445933e+04 2.546745e-02 
1.343750e+05 4.489695e+04 -1.031021e+00 
1.287740e+05 4.368797e+04 5.556785e+00 
1.305910e+05 3.710309e+04 -6.004720e+01 
1.337484e+05 3.371028e+04 -2.330148e+00 
1.349180e+05 3.981779e+04 1.016333e+00 
1.360094e+05 2.946124e+04 -5.150342e+00 
1.562500e+05 4.645979e+04 2.896379e-02 
1.564065e+05 4.127593e+04 6.150363e-02 
1.607347e+05 4.582949e+04 2.518661e-02 
1.659786e+05 4.553869e+04 1.855143e-02 
1.540871e+05 3.697223e+04 8.035050e-02 
1.949392e+05 3.439852e+04 7.616179e-02 
1.150036e+05 5.913623e+03 1.407070e+03 
6.598453e+04 3.947783e+04 8.797997e-02 
5.796379e+04 4.265973e+04 2.459428e-03 
7.370868e+04 4.542693e+04 3.048760e+02 
2.500000e+04 5.000000e+04 1.296207e-03 
4.927510e+04 1.294757e+04 1.710442e-02 
4.774972e+04 1.812884e+04 1.632629e-02 
4.049866e+04 2.319498e+04 7.158275e-02 
4.096000e+04 0.000000e+00 2.965901e-02 
6.875000e+04 5.000000e+04 5.925248e+00 
6.330730e+04 4.442929e+04 1.840782e-02 
5.625000e+04 5.000000e+04 3.119606e-02 
5.645086e+04 3.654510e+04 8.621651e-02 
4.953164e+04 4.150158e+04 6.068609e-02 
5.312500e+04 4.556566e+04 1.023314e-02 
5.094866e+04 3.617189e+04 6.849939e-02 
2.936771e+04 1.401905e+04 5.362483e-02 
4.742115e+04 3.156084e+04 4.484551e-02 
3.686400e+04 8.306615e+03 5.275726e-02 
3.686400e+04 3.143437e+03 6.514945e-02 
4.488520e+04 2.661225e+04 8.007062e-02 
3.496785e+04 3.481857e+04 5.052817e-02 
3.901887e+04 2.961851e+04 6.355486e-02 
4.195072e+04 3.608049e+04 4.672912e-02 
2.831342e+04 2.545657e+04 6.340657e-02 
3.457043e+04 2.521151e+04 3.884814e-02 
3.163034e+04 3.014488e+04 4.148695e-02 
2.446831e+04 3.878784e+04 5.166576e-02 
2.459558e+04 3.160440e+04 7.150115e-02 
2.919290e+04 3.541399e+04 2.785116e-02 
3.123138e+04 1.995819e+04 9.248576e-02 
3.602709e+04 4.544537e+04 4.915500e-02 
3.615512e+04 1.515118e+04 8.555057e-02 
3.750000e+04 5.000000e+04 6.903938e-02 
3.747728e+04 4.088345e+04 9.563219e-02 
3.972208e+04 1.206161e+04 6.824473e-02 
4.271201e+04 6.820658e+03 4.268338e-02 
3.632738e+04 2.025279e+04 4.058699e-02 
1.430406e+04 2.834099e+04 6.076790e-02 
3.156035e+04 4.372422e+04 7.538694e-02 
0.000000e+00 3.750000e+04 0.000000e+00 
4.346434e+04 4.197500e+04 1.293149e-02 
4.375000e+04 5.000000e+04 6.238829e-03 
4.687500e+04 4.591011e+04 1.081449e-02 
1.422274e+04 2.113345e+04 8.425099e-03 
9.340184e+03 6.252501e+03 5.643757e-03 
0.000000e+00 2.500000e+04 0.000000e+00 
4.085408e+04 4.608550e+04 2.495253e-02 
2.422049e+04 1.889619e+04 1.131787e-02 
2.072487e+04 2.506554e+04 6.852417e-02 
1.925338e+04 2.015678e+04 6.158093e-02 
1.512838e+04 1.570157e+04 9.656497e-02 
1.848986e+04 3.508907e+04 9.605135e-02 
0.000000e+00 6.250000e+03 0.000000e+00 
5.578663e+03 1.137725e+04 9.496078e-02 
1.118800e+04 1.233507e+04 2.807839e-03 
1.360626e+04 3.344609e+04 2.279450e-02 
1.918796e+04 2.998379e+04 9.261479e-02 
1.928611e+04 9.869498e+03 4.754562e-02 
0.000000e+00 1.250000e+04 0.000000e+00 
8.160624e+03 2.285369e+04 7.568019e-02 
1.250000e+04 5.000000e+04 4.235492e-02 
2.059257e+04 1.501735e+04 5.430933e-02 
9.873490e+03 1.734826e+04 3.159310e-02 
3.272355e+03 1.831366e+04 2.417212e-02 
1.638400e+04 0.000000e+00 8.717871e-03 
9.227661e+03 3.616211e+04 6.068501e-02 
8.192000e+03 0.000000e+00 9.527385e-02 
1.750991e+04 4.335397e+04 9.867187e-02 
1.402273e+04 3.900495e+04 7.652263e-02 
7.958570e+03 4.376808e+04 9.334015e-02 
4.096000e+03 3.125000e+03 3.622269e-02 
1.228800e+04 2.479501e+03 2.981798e-02 
1.431203e+04 8.064072e+03 9.234974e-02 
1.992535e+04 3.944982e+04 6.001219e-02 
1.279718e+04 4.501272e+04 6.691040e-02 
6.250000e+03 5.000000e+04 1.254448e-03 
4.980839e+03 3.936237e+04 2.285347e-02 
0.000000e+00 4.375000e+04 0.000000e+00 
2.969763e+04 6.677180e+03 7.309988e-02 
3.260005e+04 1.048595e+04 8.257989e-02 
2.506649e+04 1.014742e+04 7.572959e-02 
2.457600e+04 0.000000e+00 3.396987e-02 
1.775851e+04 4.651386e+03 3.816271e-02 
2.867200e+04 2.161050e+03 8.623465e-02 
3.125000e+04 5.000000e+04 9.895626e-02 
3.804649e+03 3.125000e+04 4.849911e-02 
9.177654e+03 3.024051e+04 1.947713e-02 
4.731499e+03 2.640276e+04 6.244322e-02 
2.586763e+04 4.434017e+04 5.359234e-02 
1.875000e+04 5.000000e+04 3.616662e-02 
2.142745e+04 4.606170e+04 2.305160e-02 
2.309895e+04 5.156959e+03 3.853496e-02 
</DataArray>
</Points> 
<PointData Scalars='scalars'>
<DataArray type='Float32' Name='elevation' Format='ascii'> 
0.000000e+00 
0.000000e+00 
0.000000e+00 
0.000000e+00 
4.310527e+00 
1.415875e+03 
2.399857e-02 
8.742861e-02 
6.380430e-02 
5.035622e-02 
4.998088e-02 
-3.504509e-01 
4.153333e-01 
1.193428e-01 
6.847510e-03 
1.017012e-01 
1.152702e-02 
0.000000e+00 
9.920863e-03 
6.814826e-02 
1.038039e-01 
2.832101e-02 
9.496435e-02 
-1.218058e-03 
6.454040e-04 
8.583202e-02 
5.073795e-02 
7.566667e-03 
1.033332e-01 
8.683576e-02 
1.669900e-02 
-1.592187e+00 
1.224081e-02 
-1.603705e+01 
-8.776228e-01 
1.292932e+01 
1.410977e+03 
1.415157e+03 
1.415860e+03 
1.209971e+03 
1.149088e+03 
2.171784e+02 
1.173453e+03 
1.251211e+02 
1.405408e+03 
1.393981e+03 
1.404148e+03 
4.089693e-01 
1.398092e+03 
1.415901e+03 
4.188508e+01 
1.400571e+03 
1.415696e+03 
1.415909e+03 
1.415801e+03 
1.415861e+03 
1.415884e+03 
1.415404e+03 
1.117502e+03 
1.415006e+03 
1.381385e+03 
1.415263e+03 
1.415859e+03 
1.415872e+03 
3.715888e+02 
1.421036e+03 
1.415881e+03 
1.415923e+03 
1.415859e+03 
1.382056e+03 
1.780488e-02 
1.415902e+03 
8.497687e+02 
1.414773e+03 
1.415767e+03 
1.415732e+03 
1.415742e+03 
1.418573e+03 
1.418080e+03 
9.881448e+02 
4.762638e-02 
9.587422e-02 
1.415879e+03 
1.415939e+03 
1.415857e+03 
1.415961e+03 
1.415400e+03 
1.583142e+02 
1.282775e+03 
1.427775e+03 
8.507270e-04 
1.980592e+02 
1.044271e+02 
3.417874e-02 
2.462218e-02 
8.636906e-04 
4.109407e-03 
6.195481e-02 
9.838087e-02 
9.984858e-02 
5.035959e-02 
2.391511e-03 
1.415870e+03 
7.874031e-02 
1.415920e+03 
1.428491e+03 
2.295169e-02 
5.272365e-02 
1.415591e+03 
6.270014e-02 
2.626827e-02 
1.068113e+03 
5.766819e+01 
1.445632e+03 
2.919877e-02 
8.732371e-02 
8.047209e+02 
1.448930e+03 
1.416338e+03 
1.204652e+01 
7.046929e-02 
2.140725e-02 
3.362565e-02 
-1.896046e-02 
1.468970e+00 
7.142744e-02 
7.969949e-03 
8.004424e-02 
4.266820e-02 
2.591705e-02 
3.966793e-02 
8.119716e-02 
3.908351e-02 
6.033960e-02 
5.971689e+01 
9.151404e-02 
3.514541e-01 
1.374392e+03 
1.413439e+03 
9.470898e-02 
1.368308e+00 
6.500211e+02 
1.415836e+03 
1.133218e-01 
7.678886e-02 
1.414728e+03 
1.348084e+03 
6.419780e-02 
8.370920e-02 
4.507250e-02 
1.349222e-01 
8.979994e-01 
-2.055621e+01 
-8.628687e+00 
5.573252e+02 
1.175553e+03 
1.415853e+03 
1.415851e+03 
1.415930e+03 
1.200005e+03 
-2.688435e+01 
1.410022e+03 
1.415851e+03 
1.415762e+03 
1.376036e+03 
1.415643e+03 
2.176275e-02 
4.322659e-02 
3.370434e-02 
7.039391e-02 
1.831429e-02 
1.733507e-02 
3.740395e-02 
6.585620e-02 
8.247045e-02 
6.283486e-02 
9.598437e-02 
3.710048e-02 
6.863048e-03 
5.126906e-02 
4.025784e-02 
2.268272e-02 
6.518801e-02 
3.801151e-02 
2.543869e-02 
4.060387e-02 
9.184323e-02 
-6.863738e-03 
3.132748e-02 
2.315188e-02 
0.000000e+00 
4.616363e-02 
1.572021e-02 
9.734334e-02 
4.985646e-02 
6.438552e-02 
1.484698e-02 
4.661929e-02 
5.527172e-02 
0.000000e+00 
1.914474e-02 
5.403040e-02 
8.473826e-02 
7.847456e-02 
2.292047e-02 
5.091272e-02 
8.526294e-02 
4.512216e-02 
5.897656e-02 
0.000000e+00 
8.215507e-02 
4.878593e-02 
7.100424e-02 
0.000000e+00 
6.814912e-02 
1.927683e-02 
4.100748e-02 
2.189697e-02 
3.970105e-02 
1.952668e-02 
1.899411e-02 
5.643030e-02 
1.415852e+03 
1.415527e+03 
1.415847e+03 
1.415804e+03 
1.415943e+03 
1.439189e+03 
1.436859e+03 
1.415930e+03 
1.415927e+03 
1.415886e+03 
1.415870e+03 
1.415902e+03 
1.415190e+03 
6.163259e-02 
4.065713e+02 
4.124612e-02 
1.317102e+03 
1.362746e+03 
4.147179e-02 
1.450447e+03 
3.846524e-02 
3.995537e-02 
8.071773e-02 
1.415886e+03 
1.414779e+03 
2.546745e-02 
-1.031021e+00 
5.556785e+00 
-6.004720e+01 
-2.330148e+00 
1.016333e+00 
-5.150342e+00 
2.896379e-02 
6.150363e-02 
2.518661e-02 
1.855143e-02 
8.035050e-02 
7.616179e-02 
1.407070e+03 
8.797997e-02 
2.459428e-03 
3.048760e+02 
1.296207e-03 
1.710442e-02 
1.632629e-02 
7.158275e-02 
2.965901e-02 
5.925248e+00 
1.840782e-02 
3.119606e-02 
8.621651e-02 
6.068609e-02 
1.023314e-02 
6.849939e-02 
5.362483e-02 
4.484551e-02 
5.275726e-02 
6.514945e-02 
8.007062e-02 
5.052817e-02 
6.355486e-02 
4.672912e-02 
6.340657e-02 
3.884814e-02 
4.148695e-02 
5.166576e-02 
7.150115e-02 
2.785116e-02 
9.248576e-02 
4.915500e-02 
8.555057e-02 
6.903938e-02 
9.563219e-02 
6.824473e-02 
4.268338e-02 
4.058699e-02 
6.076790e-02 
7.538694e-02 
0.000000e+00 
1.293149e-02 
6.238829e-03 
1.081449e-02 
8.425099e-03 
5.643757e-03 
0.000000e+00 
2.495253e-02 
1.131787e-02 
6.852417e-02 
6.158093e-02 
9.656497e-02 
9.605135e-02 
0.000000e+00 
9.496078e-02 
2.807839e-03 
2.279450e-02 
9.261479e-02 
4.754562e-02 
0.000000e+00 
7.568019e-02 
4.235492e-02 
5.430933e-02 
3.159310e-02 
2.417212e-02 
8.717871e-03 
6.068501e-02 
9.527385e-02 
9.867187e-02 
7.652263e-02 
9.334015e-02 
3.622269e-02 
2.981798e-02 
9.234974e-02 
6.001219e-02 
6.691040e-02 
1.254448e-03 
2.285347e-02 
0.000000e+00 
7.309988e-02 
8.257989e-02 
7.572959e-02 
3.396987e-02 
3.816271e-02 
8.623465e-02 
9.895626e-02 
4.849911e-02 
1.947713e-02 
6.244322e-02 
5.359234e-02 
3.616662e-02 
2.305160e-02 
3.853496e-02 
</DataArray>
<DataArray type='Float32' Name='elevation change (dz)' Format='ascii'> 
0.000000e+00 
0.000000e+00 
0.000000e+00 
0.000000e+00 
-1.678599e-02 
1.414421e+00 
-2.472575e-06 
6.022923e-06 
-4.856342e-06 
-1.553465e-05 
-3.513130e-06 
-1.932290e-04 
9.682221e-04 
1.662380e-04 
-9.063645e-06 
2.350169e-05 
6.287180e-06 
0.000000e+00 
-7.709961e-06 
1.885637e-06 
1.124983e-04 
-1.172502e-05 
9.956879e-06 
-1.279227e-06 
-5.334879e-06 
-6.885721e-06 
-1.378826e-06 
-1.596716e-06 
4.015737e-06 
-8.876775e-06 
6.075276e-06 
-1.291863e-03 
-2.555539e-06 
-2.635771e-02 
6.589549e-04 
-3.831827e-02 
1.402634e+00 
1.412174e+00 
1.414435e+00 
1.110795e+00 
1.047530e+00 
1.061871e-01 
1.079774e+00 
-6.460903e-03 
1.390092e+00 
1.365034e+00 
1.386562e+00 
5.947954e-04 
1.373450e+00 
1.414404e+00 
-6.882645e-02 
1.379851e+00 
1.413721e+00 
1.414424e+00 
1.414249e+00 
1.414410e+00 
1.414444e+00 
1.412841e+00 
1.003314e+00 
1.411665e+00 
1.341795e+00 
1.412297e+00 
1.414323e+00 
1.414335e+00 
2.402063e-01 
1.423033e+00 
1.414432e+00 
1.414429e+00 
1.414448e+00 
1.414222e+00 
-7.403705e-11 
1.414416e+00 
9.158768e-01 
1.411268e+00 
1.414146e+00 
1.413961e+00 
1.414169e+00 
1.418354e+00 
1.415407e+00 
1.063978e+00 
1.370696e-10 
-5.943070e-10 
1.414414e+00 
1.414456e+00 
1.414424e+00 
1.414526e+00 
1.413133e+00 
1.806445e-01 
1.339418e+00 
1.434609e+00 
3.913852e-07 
2.245119e-01 
1.193748e-01 
-2.288741e-10 
9.707552e-07 
7.052968e-10 
2.237260e-07 
9.926272e-08 
-6.377224e-10 
-9.348558e-10 
-3.544056e-10 
5.537644e-10 
1.414419e+00 
9.492217e-11 
1.414421e+00 
1.438441e+00 
2.642177e-10 
-5.700860e-11 
1.413576e+00 
-2.920122e-10 
4.570889e-10 
1.136759e+00 
7.820008e-02 
1.470915e+00 
1.532366e-07 
2.164256e-08 
8.299007e-01 
1.478551e+00 
1.413885e+00 
2.436978e-02 
-2.908610e-10 
3.017362e-10 
1.037108e-05 
-1.676371e-04 
3.710070e-03 
5.521985e-06 
-3.609360e-06 
-7.728218e-06 
9.989187e-07 
2.328795e-06 
-2.923476e-06 
-5.785280e-05 
-4.421760e-05 
-3.928188e-05 
-1.637378e-02 
-5.741430e-06 
6.898632e-04 
1.326289e+00 
1.406908e+00 
5.594607e-06 
3.512284e-03 
5.394906e-01 
1.414264e+00 
1.065430e-05 
-1.745367e-06 
1.410775e+00 
1.274303e+00 
-1.568272e-04 
-8.829103e-06 
-1.197192e-04 
2.559514e-05 
2.173478e-03 
-3.089787e-02 
-1.028104e-02 
4.649948e-01 
1.099910e+00 
1.414328e+00 
1.414321e+00 
1.414417e+00 
1.097457e+00 
-4.577062e-02 
1.399781e+00 
1.414413e+00 
1.413952e+00 
1.329319e+00 
1.413577e+00 
-1.650744e-06 
2.133853e-06 
7.282872e-07 
1.170669e-06 
4.901980e-06 
8.046660e-06 
5.837204e-06 
-4.242304e-06 
5.688246e-06 
-2.823719e-06 
1.864216e-06 
6.898621e-07 
4.231835e-06 
3.335738e-06 
-3.264548e-06 
5.261480e-06 
-1.152643e-06 
3.069826e-06 
2.570137e-06 
7.715257e-06 
-3.813253e-06 
-8.013442e-06 
-3.344802e-06 
-5.522390e-06 
0.000000e+00 
2.757727e-06 
-6.575852e-06 
4.901925e-06 
-1.584790e-06 
-6.179711e-06 
-5.997822e-07 
2.904562e-07 
-5.537979e-06 
0.000000e+00 
-5.434981e-06 
7.675220e-06 
-2.248404e-06 
-5.280186e-06 
9.211776e-07 
-3.541102e-06 
7.661985e-06 
6.453973e-06 
-8.863562e-06 
0.000000e+00 
-1.553258e-05 
-6.865647e-06 
3.698121e-06 
0.000000e+00 
-6.795938e-06 
-1.297689e-05 
-9.521566e-06 
-1.319253e-05 
9.927829e-06 
5.091948e-06 
-2.175394e-06 
6.090998e-07 
1.414366e+00 
1.413376e+00 
1.414277e+00 
1.414350e+00 
1.414441e+00 
1.456879e+00 
1.487053e+00 
1.414433e+00 
1.414421e+00 
1.414464e+00 
1.414472e+00 
1.414422e+00 
1.410265e+00 
1.621511e-06 
4.304587e-01 
1.190487e-08 
1.376961e+00 
1.436606e+00 
1.602466e-06 
1.480649e+00 
2.155866e-10 
2.048012e-10 
-5.182684e-10 
1.414536e+00 
1.411243e+00 
1.698058e-10 
1.372382e-03 
-6.835240e-02 
-1.132412e-01 
1.883895e-03 
5.953169e-03 
-6.887157e-03 
-6.767679e-06 
-1.172297e-05 
-4.020973e-06 
5.656604e-06 
-7.278803e-06 
-6.503819e-06 
1.393949e+00 
-9.278122e-10 
2.658402e-10 
3.418215e-01 
6.496826e-10 
1.473662e-10 
4.179672e-10 
-1.796924e-10 
2.500223e-10 
1.208039e-02 
4.622981e-09 
-1.430512e-10 
-5.366212e-10 
-2.840692e-10 
2.691211e-10 
9.769893e-12 
2.053246e-10 
2.754428e-10 
2.270615e-10 
-1.616006e-10 
-1.933075e-10 
4.560274e-11 
-6.641775e-11 
2.571197e-11 
-5.955672e-11 
2.267014e-10 
8.703611e-11 
2.481886e-11 
-6.921141e-11 
3.359038e-10 
-4.774834e-10 
4.054720e-10 
-3.010345e-10 
-3.544479e-10 
-5.850193e-10 
-4.131355e-10 
1.535368e-11 
4.950151e-10 
-1.780322e-10 
-1.105899e-10 
0.000000e+00 
4.952751e-10 
2.244661e-10 
1.794833e-10 
6.227542e-10 
6.424818e-10 
0.000000e+00 
1.431686e-10 
4.534048e-10 
-4.745976e-11 
-3.413596e-10 
-7.022056e-10 
-4.458303e-10 
0.000000e+00 
-7.365814e-10 
1.110030e-09 
5.980666e-10 
-3.580914e-10 
2.294386e-10 
0.000000e+00 
-4.130433e-10 
8.173251e-11 
1.034543e-11 
1.425717e-10 
2.574762e-11 
2.956974e-10 
-2.533874e-10 
-8.294672e-10 
-8.361199e-10 
-9.080522e-11 
-5.638633e-10 
-9.493507e-11 
3.285759e-10 
-8.967077e-10 
2.579145e-10 
1.505054e-10 
4.484714e-10 
3.116054e-10 
0.000000e+00 
3.988906e-11 
-4.533014e-10 
-2.539267e-10 
3.327421e-10 
4.940520e-11 
-7.883677e-10 
-3.886860e-10 
-2.909646e-10 
4.239058e-10 
-4.184970e-10 
-1.260621e-10 
3.813282e-11 
5.629211e-10 
1.969504e-10 
</DataArray>
<DataArray type='Float32' NumberOfComponents='3' Name='velocity (cm/year)' Format='ascii'> 
0.000000e+00 0.000000e+00 0.000000e+00 
0.000000e+00 0.000000e+00 0.000000e+00 
-2.000000e+00 0.000000e+00 0.000000e+00 
-2.000000e+00 0.000000e+00 0.000000e+00 
-2.000000e+00 0.000000e+00 0.000000e+00 
-1.414427e+00 0.000000e+00 1.414427e+00 
-2.000000e+00 0.000000e+00 0.000000e+00 
-2.000000e+00 0.000000e+00 0.000000e+00 
-2.000000e+00 0.000000e+00 0.000000e+00 
-2.000000e+00 0.000000e+00 0.000000e+00 
-2.000000e+00 0.000000e+00 0.000000e+00 
-2.000000e+00 0.000000e+00 0.000000e+00 
-2.000000e+00 0.000000e+00 0.000000e+00 
-2.000000e+00 0.000000e+00 0.000000e+00 
-2.000000e+00 0.000000e+00 0.000000e+00 
-2.000000e+00 0.000000e+00 0.000000e+00 
-2.000000e+00 0.000000e+00 0.000000e+00 
-2.000000e+00 0.000000e+00 0.000000e+00 
-2.000000e+00 0.000000e+00 0.000000e+00 
-2.000000e+00 0.000000e+00 0.000000e+00 
-2.000000e+00 0.000000e+00 0.000000e+00 
-2.000000e+00 0.000000e+00 0.000000e+00 
-2.000000e+00 0.000000e+00 0.000000e+00 
-2.000000e+00 0.000000e+00 0.000000e+00 
-2.000000e+00 0.000000e+00 0.000000e+00 
-2.000000e+00 0.000000e+00 0.000000e+00 
-2.000000e+00 0.000000e+00 0.000000e+00 
-2.000000e+00 0.000000e+00 0.000000e+00 
-2.000000e+00 0.000000e+00 0.000000e+00 
-2.000000e+00 0.000000e+00 0.000000e+00 
-2.000000e+00 0.000000e+00 0.000000e+00 
-2.000000e+00 0.000000e+00 0.000000e+00 
0.000000e+00 0.000000e+00 0.000000e+00 
-2.000000e+00 0.000000e+00 0.000000e+00 
-2.000000e+00 0.000000e+00 0.000000e+00 
-2.000000e+00 0.000000e+00 0.000000e+00 
-1.414427e+00 0.000000e+00 1.414427e+00 
-1.414427e+00 0.000000e+00 1.414427e+00 
-1.414427e+00 0.000000e+00 1.414427e+00 
-1.414427e+00 0.000000e+00 1.414427e+00 
-1.414427e+00 0.000000e+00 1.414427e+00 
-2.000000e+00 0.000000e+00 0.000000e+00 
-1.414427e+00 0.000000e+00 1.414427e+00 
-2.000000e+00 0.000000e+00 0.000000e+00 
-1.414427e+00 0.000000e+00 1.414427e+00 
-1.414427e+00 0.000000e+00 1.414427e+00 
-1.414427e+00 0.000000e+00 1.414427e+00 
-2.000000e+00 0.000000e+00 0.000000e+00 
-1.414427e+00 0.000000e+00 1.414427e+00 
-1.414427e+00 0.000000e+00 1.414427e+00 
-2.000000e+00 0.000000e+00 0.000000e+00 
-1.414427e+00 0.000000e+00 1.414427e+00 
-1.414427e+00 0.000000e+00 1.414427e+00 
-1.414427e+00 0.000000e+00 1.414427e+00 
-1.414427e+00 0.000000e+00 1.414427e+00 
-1.414427e+00 0.000000e+00 1.414427e+00 
-1.414427e+00 0.000000e+00 1.414427e+00 
-1.414427e+00 0.000000e+00 1.414427e+00 
-1.414427e+00 0.000000e+00 1.414427e+00 
-1.414427e+00 0.000000e+00 1.414427e+00 
-1.414427e+00 0.000000e+00 1.414427e+00 
-1.414427e+00 0.000000e+00 1.414427e+00 
-1.414427e+00 0.000000e+00 1.414427e+00 
-1.414427e+00 0.000000e+00 1.414427e+00 
-2.000000e+00 0.000000e+00 0.000000e+00 
-1.414427e+00 0.000000e+00 1.414427e+00 
-1.414427e+00 0.000000e+00 1.414427e+00 
-1.414427e+00 0.000000e+00 1.414427e+00 
-1.414427e+00 0.000000e+00 1.414427e+00 
-1.414427e+00 0.000000e+00 1.414427e+00 
0.000000e+00 0.000000e+00 0.000000e+00 
-1.414427e+00 0.000000e+00 1.414427e+00 
-1.414427e+00 0.000000e+00 1.414427e+00 
-1.414427e+00 0.000000e+00 1.414427e+00 
-1.414427e+00 0.000000e+00 1.414427e+00 
-1.414427e+00 0.000000e+00 1.414427e+00 
-1.414427e+00 0.000000e+00 1.414427e+00 
-1.414427e+00 0.000000e+00 1.414427e+00 
-1.414427e+00 0.000000e+00 1.414427e+00 
-1.414427e+00 0.000000e+00 1.414427e+00 
0.000000e+00 0.000000e+00 0.000000e+00 
0.000000e+00 0.000000e+00 0.000000e+00 
-1.414427e+00 0.000000e+00 1.414427e+00 
-1.414427e+00 0.000000e+00 1.414427e+00 
-1.414427e+00 0.000000e+00 1.414427e+00 
-1.414427e+00 0.000000e+00 1.414427e+00 
-1.414427e+00 0.000000e+00 1.414427e+00 
0.000000e+00 0.000000e+00 0.000000e+00 
-1.414427e+00 0.000000e+00 1.414427e+00 
-1.414427e+00 0.000000e+00 1.414427e+00 
0.000000e+00 0.000000e+00 0.000000e+00 
0.000000e+00 0.000000e+00 0.000000e+00 
0.000000e+00 0.000000e+00 0.000000e+00 
0.000000e+00 0.000000e+00 0.000000e+00 
0.000000e+00 0.000000e+00 0.000000e+00 
0.000000e+00 0.000000e+00 0.000000e+00 
0.000000e+00 0.000000e+00 0.000000e+00 
0.000000e+00 0.000000e+00 0.000000e+00 
0.000000e+00 0.000000e+00 0.000000e+00 
0.000000e+00 0.000000e+00 0.000000e+00 
0.000000e+00 0.000000e+00 0.000000e+00 
0.000000e+00 0.000000e+00 0.000000e+00 
-1.414427e+00 0.000000e+00 1.414427e+00 
0.000000e+00 0.000000e+00 0.000000e+00 
-1.414427e+00 0.000000e+00 1.414427e+00 
-1.414427e+00 0.000000e+00 1.414427e+00 
0.000000e+00 0.000000e+00 0.000000e+00 
0.000000e+00 0.000000e+00 0.000000e+00 
-1.414427e+00 0.000000e+00 1.414427e+00 
0.000000e+00 0.000000e+00 0.000000e+00 
0.000000e+00 0.000000e+00 0.000000e+00 
-1.414427e+00 0.000000e+00 1.414427e+00 
0.000000e+00 0.000000e+00 0.000000e+00 
-1.414427e+00 0.000000e+00 1.414427e+00 
0.000000e+00 0.000000e+00 0.000000e+00 
0.000000e+00 0.000000e+00 0.000000e+00 
0.000000e+00 0.000000e+00 0.000000e+00 
-1.414427e+00 0.000000e+00 1.414427e+00 
-1.414427e+00 0.000000e+00 1.414427e+00 
0.000000e+00 0.000000e+00 0.000000e+00 
0.000000e+00 0.000000e+00 0.000000e+00 
0.000000e+00 0.000000e+00 0.000000e+00 
0.000000e+00 0.000000e+00 0.000000e+00 
-2.000000e+00 0.000000e+00 0.000000e+00 
-2.000000e+00 0.000000e+00 0.000000e+00 
-2.000000e+00 0.000000e+00 0.000000e+00 
-2.000000e+00 0.000000e+00 0.000000e+00 
-2.000000e+00 0.000000e+00 0.000000e+00 
-2.000000e+00 0.000000e+00 0.000000e+00 
-2.000000e+00 0.000000e+00 0.000000e+00 