<VTKFile type='UnstructuredGrid' version='0.1' byte_order='BigEndian'> 
<UnstructuredGrid> 
<Piece NumberOfPoints='   353 ' NumberOfCells='   637 '> 
<Points> 
<DataArray type='Float32' NumberOfComponents='3' Format='ascii'> 
0.000000e+00 0.000000e+00 0.000000e+00 
0.000000e+00 5.000000e+04 0.000000e+00 
2.000000e+05 5.000000e+04 0.000000e+00 
2.000000e+05 0.000000e+00 0.000000e+00 
1.310720e+05 0.000000e+00 3.194509e+01 
1.000000e+05 5.000000e+04 1.415879e+03 
1.655360e+05 0.000000e+00 2.740516e-02 
1.569200e+05 0.000000e+00 8.103408e-02 
1.827680e+05 0.000000e+00 6.905892e-02 
1.511714e+05 6.663383e+03 6.014523e-02 
1.500000e+05 5.000000e+04 5.581914e-02 
1.396880e+05 0.000000e+00 6.614073e-02 
1.396880e+05 2.532102e+04 1.453086e-02 
1.439960e+05 5.597312e+03 4.400550e-02 
1.526120e+05 2.094823e+03 1.622844e-02 
1.483040e+05 0.000000e+00 9.059659e-02 
1.566099e+05 5.543921e+03 5.883146e-03 
2.000000e+05 3.276800e+04 0.000000e+00 
1.444752e+05 1.042262e+04 7.461604e-03 
1.483179e+05 1.338016e+04 6.869396e-02 
1.396880e+05 1.119462e+04 3.370019e-02 
1.546754e+05 1.995101e+04 4.046143e-02 
1.569200e+05 1.108784e+04 8.423933e-02 
1.523211e+05 1.111634e+04 1.861428e-03 
1.642561e+05 7.896923e+03 6.079051e-03 
1.614575e+05 3.391147e+03 9.150194e-02 
1.913840e+05 0.000000e+00 5.089272e-02 
1.641271e+05 1.762887e+04 9.098180e-03 
1.741520e+05 0.000000e+00 9.871291e-02 
1.619979e+05 1.273383e+04 9.467031e-02 
1.589537e+05 1.696852e+04 1.125326e-02 
1.353800e+05 5.597312e+03 4.239271e-02 
6.553600e+04 0.000000e+00 1.226864e-02 
1.314330e+05 1.309166e+04 3.184254e-02 
1.351254e+05 1.024977e+04 6.217564e-02 
1.282498e+05 6.628621e+03 7.119477e+01 
1.146880e+05 0.000000e+00 1.415911e+03 
1.124309e+05 1.843517e+04 1.415847e+03 
9.830400e+04 0.000000e+00 1.415859e+03 
1.214360e+05 1.399995e+04 1.303305e+03 
1.228800e+05 0.000000e+00 1.245650e+03 
1.262599e+05 1.162409e+04 3.341993e+02 
1.209227e+05 6.872557e+03 1.262975e+03 
1.269760e+05 2.171186e+03 2.617931e+02 
1.143290e+05 1.092966e+04 1.415880e+03 
1.187840e+05 2.548444e+03 1.415843e+03 
1.165754e+05 1.549055e+04 1.415914e+03 
1.383830e+05 3.367874e+04 9.674557e-02 
1.183327e+05 2.235291e+04 1.415939e+03 
1.019938e+05 1.180280e+04 1.415908e+03 
1.267409e+05 2.072382e+04 1.590866e+02 
1.168967e+05 2.714785e+04 1.415878e+03 
1.083053e+05 1.339901e+04 1.415911e+03 
1.027280e+05 2.217572e+04 1.415909e+03 
1.064960e+05 0.000000e+00 1.415853e+03 
1.040703e+05 1.686826e+04 1.415865e+03 
9.534755e+04 1.748569e+04 1.415878e+03 
1.099109e+05 8.733897e+03 1.415893e+03 
1.229068e+05 2.344792e+04 1.227226e+03 
1.117799e+05 3.147145e+04 1.415892e+03 
1.184650e+05 3.190116e+04 1.415844e+03 
1.128892e+05 2.414895e+04 1.415924e+03 
1.081008e+05 2.165776e+04 1.415885e+03 
1.060078e+05 2.807192e+04 1.415893e+03 
1.250000e+05 5.000000e+04 5.055092e+02 
8.426815e+04 2.406956e+04 1.415884e+03 
9.713560e+04 2.914679e+04 1.415880e+03 
1.013526e+05 2.680108e+04 1.415919e+03 
9.662092e+04 2.325808e+04 1.415852e+03 
8.008965e+04 1.845415e+04 1.346268e+03 
5.000000e+04 5.000000e+04 1.780488e-02 
9.612128e+04 3.441540e+04 1.415911e+03 
7.555137e+04 8.686183e+03 7.825567e+02 
8.507841e+04 3.128206e+04 1.415869e+03 
9.073859e+04 2.673905e+04 1.415876e+03 
9.047435e+04 2.083293e+04 1.415905e+03 
8.915325e+04 1.507040e+04 1.415847e+03 
8.585091e+04 1.953601e+04 1.415887e+03 
8.231038e+04 3.799135e+04 1.415862e+03 
7.500000e+04 5.000000e+04 9.106370e+02 
6.037954e+04 8.109716e+03 4.762638e-02 
4.934371e+04 2.328941e+04 9.587422e-02 
1.005203e+05 4.159553e+04 1.415890e+03 
9.469874e+04 9.998989e+03 1.415937e+03 
1.013509e+05 3.321602e+04 1.415858e+03 
9.070152e+04 3.249041e+04 1.415934e+03 
8.750000e+04 5.000000e+04 1.415878e+03 
7.096717e+04 2.938589e+04 1.362552e+02 
7.697941e+04 2.513087e+04 1.223796e+03 
8.112958e+04 2.807391e+04 1.415932e+03 
6.595903e+04 1.593442e+04 8.251398e-04 
7.268989e+04 1.906988e+04 1.716385e+02 
7.182853e+04 2.422788e+04 8.962648e+01 
6.168282e+04 2.518453e+04 3.417874e-02 
6.688266e+04 2.605287e+04 2.457692e-02 
6.264723e+04 3.541252e+04 8.636906e-04 
6.503396e+04 2.112024e+04 4.099290e-03 
6.352261e+04 3.017052e+04 6.195018e-02 
4.915200e+04 0.000000e+00 9.838087e-02 
5.321168e+04 3.114274e+04 9.984858e-02 
6.089337e+04 1.770620e+04 5.035959e-02 
5.823810e+04 2.928803e+04 2.391511e-03 
9.953501e+04 6.093312e+03 1.415874e+03 
3.276800e+04 0.000000e+00 7.874031e-02 
9.770107e+04 1.351027e+04 1.415925e+03 
8.192000e+04 0.000000e+00 1.415905e+03 
5.796953e+04 2.179569e+04 2.295169e-02 
5.411296e+04 1.594841e+04 5.272365e-02 
9.011200e+04 0.000000e+00 1.415889e+03 
5.333060e+04 2.065986e+04 6.270014e-02 
5.413665e+04 2.591112e+04 2.626827e-02 
7.602709e+04 1.440340e+04 9.977241e+02 
7.050877e+04 1.198417e+04 3.766270e+01 
8.168267e+04 1.105441e+04 1.415857e+03 
6.525849e+04 1.053233e+04 2.917867e-02 
6.483972e+04 5.251476e+03 8.731634e-02 
7.372800e+04 0.000000e+00 7.785413e+02 
8.030694e+04 5.495120e+03 1.415935e+03 
8.626006e+04 1.149592e+04 1.415893e+03 
7.040374e+04 6.319545e+03 7.122731e-02 
5.848944e+04 1.302292e+04 7.046929e-02 
5.189415e+04 7.892811e+03 2.140725e-02 
6.963200e+04 1.879488e+03 3.348089e-02 
1.424909e+05 1.825782e+04 2.549451e-02 
1.351976e+05 1.945132e+04 6.832944e-02 
1.485221e+05 1.954351e+04 6.941030e-02 
1.507482e+05 3.259003e+04 1.317380e-02 
1.511979e+05 2.580012e+04 8.864333e-02 
1.616825e+05 2.807525e+04 4.203222e-02 
1.597445e+05 2.266280e+04 2.412327e-02 
1.564493e+05 2.689586e+04 4.352797e-02 
1.453073e+05 2.881986e+04 9.794731e-02 
1.447661e+05 3.541197e+04 5.599342e-02 
1.447611e+05 2.343530e+04 6.247377e-02 
1.306402e+05 3.027233e+04 1.409530e+02 
1.512206e+05 4.133139e+04 9.619854e-02 
1.408122e+05 2.977730e+04 7.604336e-02 
1.187500e+05 5.000000e+04 1.415883e+03 
1.147692e+05 3.718187e+04 1.415900e+03 
1.491989e+05 3.705719e+04 9.009562e-02 
1.375000e+05 5.000000e+04 7.892339e-02 
1.243990e+05 3.998777e+04 7.602501e+02 
1.074106e+05 3.739633e+04 1.415876e+03 
1.395701e+05 4.192748e+04 3.684784e-02 
1.453874e+05 4.147522e+04 7.358357e-02 
1.125000e+05 5.000000e+04 1.415898e+03 
1.200601e+05 3.695115e+04 1.415841e+03 
1.407597e+05 3.754650e+04 7.101307e-02 
1.484014e+05 4.535468e+04 9.038042e-02 
1.437500e+05 5.000000e+04 7.977321e-02 
1.406250e+05 4.649968e+04 8.974737e-02 
1.383468e+05 1.581461e+04 9.105013e-02 
1.306339e+05 1.785875e+04 5.415581e-02 
1.337495e+05 2.521163e+04 7.921571e-02 
1.247668e+05 3.268755e+04 6.489718e+02 
1.220997e+05 2.841742e+04 1.247430e+03 
1.060909e+05 3.282715e+04 1.415877e+03 
1.062500e+05 5.000000e+04 1.415873e+03 
1.028045e+05 3.759101e+04 1.415935e+03 
1.232165e+05 4.508290e+04 1.297882e+03 
1.312500e+05 5.000000e+04 5.484686e-02 
1.156250e+05 4.394330e+04 1.415904e+03 
1.031250e+05 4.597513e+04 1.415854e+03 
1.092868e+05 4.441657e+04 1.415895e+03 
1.198408e+05 4.171472e+04 1.415910e+03 
1.111733e+05 4.015155e+04 1.415881e+03 
1.707321e+05 1.284956e+04 2.457588e-02 
1.907575e+05 1.956923e+04 4.068811e-02 
1.815955e+05 2.853574e+04 3.235983e-02 
1.790829e+05 1.221776e+04 6.852763e-02 
1.708285e+05 1.993654e+04 1.418108e-02 
1.747315e+05 1.020703e+04 9.054365e-03 
1.751950e+05 1.633300e+04 3.124777e-02 
1.750000e+05 5.000000e+04 6.957720e-02 
1.771145e+05 2.310613e+04 7.596229e-02 
1.658400e+05 2.353894e+04 6.593887e-02 
1.715321e+05 3.292900e+04 9.346991e-02 
1.673157e+05 2.906467e+04 3.656057e-02 
1.728972e+05 2.720706e+04 2.974646e-03 
1.625000e+05 5.000000e+04 4.878207e-02 
1.576761e+05 3.365249e+04 4.436894e-02 
1.637238e+05 3.298379e+04 1.793720e-02 
1.767457e+05 3.114899e+04 6.673941e-02 
1.709898e+05 4.396635e+04 3.412668e-02 
1.768219e+05 3.989760e+04 2.383464e-02 
1.821641e+05 3.539788e+04 3.274522e-02 
1.856011e+05 3.165848e+04 9.437868e-02 
1.906627e+05 3.123909e+04 7.734630e-04 
1.615916e+05 4.138255e+04 3.603116e-02 
1.810605e+05 1.832923e+04 2.796950e-02 
2.000000e+05 1.638400e+04 0.000000e+00 
1.676665e+05 3.845476e+04 4.324533e-02 
1.724762e+05 3.770440e+04 2.203845e-02 
1.687500e+05 5.000000e+04 9.188547e-02 
1.875000e+05 5.000000e+04 5.010356e-02 
1.819048e+05 2.371661e+04 6.980893e-02 
1.857289e+05 2.035739e+04 1.623501e-02 
1.870702e+05 1.247917e+04 4.646292e-02 
1.890939e+05 2.539104e+04 6.065278e-02 
2.000000e+05 2.457600e+04 0.000000e+00 
1.946993e+05 2.702178e+04 2.498767e-02 
1.840029e+05 4.300194e+04 4.596319e-02 
1.886643e+05 3.787438e+04 8.548168e-02 
1.760248e+05 4.496934e+04 8.316586e-02 
1.832577e+05 6.812341e+03 2.275084e-02 
1.784600e+05 3.733458e+03 5.379910e-02 
1.898875e+05 6.467890e+03 7.612958e-02 
1.870760e+05 2.410322e+03 3.952950e-02 
1.941270e+05 1.212068e+04 6.733851e-02 
2.000000e+05 8.192000e+03 0.000000e+00 
1.954521e+05 4.348304e+03 9.724277e-02 
1.962415e+05 2.048000e+04 5.538770e-02 
1.812500e+05 5.000000e+04 6.807783e-02 
2.000000e+05 4.138400e+04 0.000000e+00 
1.904306e+05 4.416269e+04 7.322530e-02 
1.943168e+05 3.967893e+04 3.222683e-02 
1.937500e+05 5.000000e+04 4.998996e-02 
1.968750e+05 4.569200e+04 3.608381e-02 
1.698440e+05 4.750437e+03 3.071982e-02 
1.907395e+05 1.507471e+04 1.359195e-02 
1.804201e+05 4.563305e+04 2.256830e-02 
1.743193e+05 5.659087e+03 5.442957e-02 
1.047716e+05 7.222340e+03 1.415867e+03 
1.105920e+05 3.433039e+03 1.415846e+03 
8.760935e+04 3.692402e+04 1.415922e+03 
8.616694e+04 4.345040e+04 1.415870e+03 
9.322272e+04 4.158723e+04 1.415935e+03 
8.125000e+04 5.000000e+04 1.415901e+03 
7.812500e+04 4.367292e+04 1.381008e+03 
9.226588e+04 3.702886e+04 1.415929e+03 
9.687460e+04 3.889152e+04 1.415931e+03 
9.375000e+04 5.000000e+04 1.415874e+03 
9.062500e+04 4.597295e+04 1.415854e+03 
9.687500e+04 4.558818e+04 1.415906e+03 
8.220222e+04 4.559442e+04 1.415926e+03 
6.935989e+04 4.351159e+04 6.157344e-02 
7.444533e+04 3.657988e+04 3.825818e+02 
6.250000e+04 5.000000e+04 4.124212e-02 
7.636883e+04 3.121210e+04 1.254878e+03 
7.803054e+04 3.922095e+04 1.285840e+03 
6.865041e+04 3.494381e+04 4.142958e-02 
8.070629e+04 3.340392e+04 1.415879e+03 
4.836011e+04 4.697869e+03 3.846524e-02 
5.734400e+04 0.000000e+00 3.995537e-02 
5.324800e+04 2.999702e+03 8.071773e-02 
9.404796e+04 4.246006e+03 1.415859e+03 
8.817387e+04 5.743883e+03 1.415862e+03 
4.378652e+04 1.445933e+04 2.546745e-02 
1.343750e+05 4.489695e+04 9.722087e-02 
1.287740e+05 4.368797e+04 8.673637e+01 
1.305910e+05 3.710309e+04 6.537533e-03 
1.337484e+05 3.371028e+04 8.388087e-02 
1.349180e+05 3.981779e+04 8.738091e-02 
1.360094e+05 2.946124e+04 8.226833e-02 
1.562500e+05 4.645979e+04 3.587970e-02 
1.564065e+05 4.127593e+04 7.346467e-02 
1.607347e+05 4.582949e+04 3.054967e-02 
1.659786e+05 4.553869e+04 1.372806e-02 
1.540871e+05 3.697223e+04 8.652750e-02 
1.949392e+05 3.439852e+04 8.330293e-02 
1.150036e+05 5.913623e+03 1.415863e+03 
6.598453e+04 3.947783e+04 8.797997e-02 
5.796379e+04 4.265973e+04 2.459428e-03 
7.370868e+04 4.542693e+04 2.682459e+02 
2.500000e+04 5.000000e+04 1.296207e-03 
4.927510e+04 1.294757e+04 1.710442e-02 
4.774972e+04 1.812884e+04 1.632629e-02 
4.049866e+04 2.319498e+04 7.158275e-02 
4.096000e+04 0.000000e+00 2.965901e-02 
6.875000e+04 5.000000e+04 1.972241e-02 
6.330730e+04 4.442929e+04 1.840641e-02 
5.625000e+04 5.000000e+04 3.119606e-02 
5.645086e+04 3.654510e+04 8.621651e-02 
4.953164e+04 4.150158e+04 6.068609e-02 
5.312500e+04 4.556566e+04 1.023314e-02 
5.094866e+04 3.617189e+04 6.849939e-02 
2.936771e+04 1.401905e+04 5.362483e-02 
4.742115e+04 3.156084e+04 4.484551e-02 
3.686400e+04 8.306615e+03 5.275726e-02 
3.686400e+04 3.143437e+03 6.514945e-02 
4.488520e+04 2.661225e+04 8.007062e-02 
3.496785e+04 3.481857e+04 5.052817e-02 
3.901887e+04 2.961851e+04 6.355486e-02 
4.195072e+04 3.608049e+04 4.672912e-02 
2.831342e+04 2.545657e+04 6.340657e-02 
3.457043e+04 2.521151e+04 3.884814e-02 
3.163034e+04 3.014488e+04 4.148695e-02 
2.446831e+04 3.878784e+04 5.166576e-02 
2.459558e+04 3.160440e+04 7.150115e-02 
2.919290e+04 3.541399e+04 2.785116e-02 
3.123138e+04 1.995819e+04 9.248576e-02 
3.602709e+04 4.544537e+04 4.915500e-02 
3.615512e+04 1.515118e+04 8.555057e-02 
3.750000e+04 5.000000e+04 6.903938e-02 
3.747728e+04 4.088345e+04 9.563219e-02 
3.972208e+04 1.206161e+04 6.824473e-02 
4.271201e+04 6.820658e+03 4.268338e-02 
3.632738e+04 2.025279e+04 4.058699e-02 
1.430406e+04 2.834099e+04 6.076790e-02 
3.156035e+04 4.372422e+04 7.538694e-02 
0.000000e+00 3.750000e+04 0.000000e+00 
4.346434e+04 4.197500e+04 1.293149e-02 
4.375000e+04 5.000000e+04 6.238829e-03 
4.687500e+04 4.591011e+04 1.081449e-02 
1.422274e+04 2.113345e+04 8.425099e-03 
9.340184e+03 6.252501e+03 5.643757e-03 
0.000000e+00 2.500000e+04 0.000000e+00 
4.085408e+04 4.608550e+04 2.495253e-02 
2.422049e+04 1.889619e+04 1.131787e-02 
2.072487e+04 2.506554e+04 6.852417e-02 
1.925338e+04 2.015678e+04 6.158093e-02 
1.512838e+04 1.570157e+04 9.656497e-02 
1.848986e+04 3.508907e+04 9.605135e-02 
0.000000e+00 6.250000e+03 0.000000e+00 
5.578663e+03 1.137725e+04 9.496078e-02 
1.118800e+04 1.233507e+04 2.807839e-03 
1.360626e+04 3.344609e+04 2.279450e-02 
1.918796e+04 2.998379e+04 9.261479e-02 
1.928611e+04 9.869498e+03 4.754562e-02 
0.000000e+00 1.250000e+04 0.000000e+00 
8.160624e+03 2.285369e+04 7.568019e-02 
1.250000e+04 5.000000e+04 4.235492e-02 
2.059257e+04 1.501735e+04 5.430933e-02 
9.873490e+03 1.734826e+04 3.159310e-02 
3.272355e+03 1.831366e+04 2.417212e-02 
1.638400e+04 0.000000e+00 8.717871e-03 
9.227661e+03 3.616211e+04 6.068501e-02 
8.192000e+03 0.000000e+00 9.527385e-02 
1.750991e+04 4.335397e+04 9.867187e-02 
1.402273e+04 3.900495e+04 7.652263e-02 
7.958570e+03 4.376808e+04 9.334015e-02 
4.096000e+03 3.125000e+03 3.622269e-02 
1.228800e+04 2.479501e+03 2.981798e-02 
1.431203e+04 8.064072e+03 9.234974e-02 
1.992535e+04 3.944982e+04 6.001219e-02 
1.279718e+04 4.501272e+04 6.691040e-02 
6.250000e+03 5.000000e+04 1.254448e-03 
4.980839e+03 3.936237e+04 2.285347e-02 
0.000000e+00 4.375000e+04 0.000000e+00 
2.969763e+04 6.677180e+03 7.309988e-02 
3.260005e+04 1.048595e+04 8.257989e-02 
2.506649e+04 1.014742e+04 7.572959e-02 
2.457600e+04 0.000000e+00 3.396987e-02 
1.775851e+04 4.651386e+03 3.816271e-02 
2.867200e+04 2.161050e+03 8.623465e-02 
3.125000e+04 5.000000e+04 9.895626e-02 
3.804649e+03 3.125000e+04 4.849911e-02 
9.177654e+03 3.024051e+04 1.947713e-02 
4.731499e+03 2.640276e+04 6.244322e-02 
2.586763e+04 4.434017e+04 5.359234e-02 
1.875000e+04 5.000000e+04 3.616662e-02 
2.142745e+04 4.606170e+04 2.305160e-02 
2.309895e+04 5.156959e+03 3.853496e-02 
</DataArray>
</Points> 
<PointData Scalars='scalars'>
<DataArray type='Float32' Name='elevation' Format='ascii'> 
0.000000e+00 
0.000000e+00 
0.000000e+00 
0.000000e+00 
3.194509e+01 
1.415879e+03 
2.740516e-02 
8.103408e-02 
6.905892e-02 
6.014523e-02 
5.581914e-02 
6.614073e-02 
1.453086e-02 
4.400550e-02 
1.622844e-02 
9.059659e-02 
5.883146e-03 
0.000000e+00 
7.461604e-03 
6.869396e-02 
3.370019e-02 
4.046143e-02 
8.423933e-02 
1.861428e-03 
6.079051e-03 
9.150194e-02 
5.089272e-02 
9.098180e-03 
9.871291e-02 
9.467031e-02 
1.125326e-02 
4.239271e-02 
1.226864e-02 
3.184254e-02 
6.217564e-02 
7.119477e+01 
1.415911e+03 
1.415847e+03 
1.415859e+03 
1.303305e+03 
1.245650e+03 
3.341993e+02 
1.262975e+03 
2.617931e+02 
1.415880e+03 
1.415843e+03 
1.415914e+03 
9.674557e-02 
1.415939e+03 
1.415908e+03 
1.590866e+02 
1.415878e+03 
1.415911e+03 
1.415909e+03 
1.415853e+03 
1.415865e+03 
1.415878e+03 
1.415893e+03 
1.227226e+03 
1.415892e+03 
1.415844e+03 
1.415924e+03 
1.415885e+03 
1.415893e+03 
5.055092e+02 
1.415884e+03 
1.415880e+03 
1.415919e+03 
1.415852e+03 
1.346268e+03 
1.780488e-02 
1.415911e+03 
7.825567e+02 
1.415869e+03 
1.415876e+03 
1.415905e+03 
1.415847e+03 
1.415887e+03 
1.415862e+03 
9.106370e+02 
4.762638e-02 
9.587422e-02 
1.415890e+03 
1.415937e+03 
1.415858e+03 
1.415934e+03 
1.415878e+03 
1.362552e+02 
1.223796e+03 
1.415932e+03 
8.251398e-04 
1.716385e+02 
8.962648e+01 
3.417874e-02 
2.457692e-02 
8.636906e-04 
4.099290e-03 
6.195018e-02 
9.838087e-02 
9.984858e-02 
5.035959e-02 
2.391511e-03 
1.415874e+03 
7.874031e-02 
1.415925e+03 
1.415905e+03 
2.295169e-02 
5.272365e-02 
1.415889e+03 
6.270014e-02 
2.626827e-02 
9.977241e+02 
3.766270e+01 
1.415857e+03 
2.917867e-02 
8.731634e-02 
7.785413e+02 
1.415935e+03 
1.415893e+03 
7.122731e-02 
7.046929e-02 
2.140725e-02 
3.348089e-02 
2.549451e-02 
6.832944e-02 
6.941030e-02 
1.317380e-02 
8.864333e-02 
4.203222e-02 
2.412327e-02 
4.352797e-02 
9.794731e-02 
5.599342e-02 
6.247377e-02 
1.409530e+02 
9.619854e-02 
7.604336e-02 
1.415883e+03 
1.415900e+03 
9.009562e-02 
7.892339e-02 
7.602501e+02 
1.415876e+03 
3.684784e-02 
7.358357e-02 
1.415898e+03 
1.415841e+03 
7.101307e-02 
9.038042e-02 
7.977321e-02 
8.974737e-02 
9.105013e-02 
5.415581e-02 
7.921571e-02 
6.489718e+02 
1.247430e+03 
1.415877e+03 
1.415873e+03 
1.415935e+03 
1.297882e+03 
5.484686e-02 
1.415904e+03 
1.415854e+03 
1.415895e+03 
1.415910e+03 
1.415881e+03 
2.457588e-02 
4.068811e-02 
3.235983e-02 
6.852763e-02 
1.418108e-02 
9.054365e-03 
3.124777e-02 
6.957720e-02 
7.596229e-02 
6.593887e-02 
9.346991e-02 
3.656057e-02 
2.974646e-03 
4.878207e-02 
4.436894e-02 
1.793720e-02 
6.673941e-02 
3.412668e-02 
2.383464e-02 
3.274522e-02 
9.437868e-02 
7.734630e-04 
3.603116e-02 
2.796950e-02 
0.000000e+00 
4.324533e-02 
2.203845e-02 
9.188547e-02 
5.010356e-02 
6.980893e-02 
1.623501e-02 
4.646292e-02 
6.065278e-02 
0.000000e+00 
2.498767e-02 
4.596319e-02 
8.548168e-02 
8.316586e-02 
2.275084e-02 
5.379910e-02 
7.612958e-02 
3.952950e-02 
6.733851e-02 
0.000000e+00 
9.724277e-02 
5.538770e-02 
6.807783e-02 
0.000000e+00 
7.322530e-02 
3.222683e-02 
4.998996e-02 
3.608381e-02 
3.071982e-02 
1.359195e-02 
2.256830e-02 
5.442957e-02 
1.415867e+03 
1.415846e+03 
1.415922e+03 
1.415870e+03 
1.415935e+03 
1.415901e+03 
1.381008e+03 
1.415929e+03 
1.415931e+03 
1.415874e+03 
1.415854e+03 
1.415906e+03 
1.415926e+03 
6.157344e-02 
3.825818e+02 
4.124212e-02 
1.254878e+03 
1.285840e+03 
4.142958e-02 
1.415879e+03 
3.846524e-02 
3.995537e-02 
8.071773e-02 
1.415859e+03 
1.415862e+03 
2.546745e-02 
9.722087e-02 
8.673637e+01 
6.537533e-03 
8.388087e-02 
8.738091e-02 
8.226833e-02 
3.587970e-02 
7.346467e-02 
3.054967e-02 
1.372806e-02 
8.652750e-02 
8.330293e-02 
1.415863e+03 
8.797997e-02 
2.459428e-03 
2.682459e+02 
1.296207e-03 
1.710442e-02 
1.632629e-02 
7.158275e-02 
2.965901e-02 
1.972241e-02 
1.840641e-02 
3.119606e-02 
8.621651e-02 
6.068609e-02 
1.023314e-02 
6.849939e-02 
5.362483e-02 
4.484551e-02 
5.275726e-02 
6.514945e-02 
8.007062e-02 
5.052817e-02 
6.355486e-02 
4.672912e-02 
6.340657e-02 
3.884814e-02 
4.148695e-02 
5.166576e-02 
7.150115e-02 
2.785116e-02 
9.248576e-02 
4.915500e-02 
8.555057e-02 
6.903938e-02 
9.563219e-02 
6.824473e-02 
4.268338e-02 
4.058699e-02 
6.076790e-02 
7.538694e-02 
0.000000e+00 
1.293149e-02 
6.238829e-03 
1.081449e-02 
8.425099e-03 
5.643757e-03 
0.000000e+00 
2.495253e-02 
1.131787e-02 
6.852417e-02 
6.158093e-02 
9.656497e-02 
9.605135e-02 
0.000000e+00 
9.496078e-02 
2.807839e-03 
2.279450e-02 
9.261479e-02 
4.754562e-02 
0.000000e+00 
7.568019e-02 
4.235492e-02 
5.430933e-02 
3.159310e-02 
2.417212e-02 
8.717871e-03 
6.068501e-02 
9.527385e-02 
9.867187e-02 
7.652263e-02 
9.334015e-02 
3.622269e-02 
2.981798e-02 
9.234974e-02 
6.001219e-02 
6.691040e-02 
1.254448e-03 
2.285347e-02 
0.000000e+00 
7.309988e-02 
8.257989e-02 
7.572959e-02 
3.396987e-02 
3.816271e-02 
8.623465e-02 
9.895626e-02 
4.849911e-02 
1.947713e-02 
6.244322e-02 
5.359234e-02 
3.616662e-02 
2.305160e-02 
3.853496e-02 
</DataArray>
<DataArray type='Float32' Name='elevation change (dz)' Format='ascii'> 
0.000000e+00 
0.000000e+00 
0.000000e+00 
0.000000e+00 
3.191192e-02 
1.414427e+00 
3.415578e-10 
-7.268942e-10 
-3.409761e-10 
-4.728327e-10 
1.391994e-10 
1.737188e-08 
5.766716e-10 
2.505324e-11 
1.704276e-09 
-7.071858e-10 
7.125584e-10 
0.000000e+00 
6.395629e-10 
-5.894639e-10 
2.284703e-10 
2.097482e-12 
-1.003653e-09 
9.970438e-10 
5.805174e-10 
-1.426745e-09 
1.301078e-10 
3.807562e-10 
-4.857656e-10 
-9.954409e-10 
4.964699e-10 
1.438105e-07 
-2.472373e-06 
1.174271e-06 
6.118586e-08 
7.110847e-02 
1.414427e+00 
1.414427e+00 
1.414427e+00 
1.301920e+00 
1.244363e+00 
3.338249e-01 
1.261653e+00 
2.614874e-01 
1.414427e+00 
1.414425e+00 
1.414426e+00 
-3.191938e-10 
1.414426e+00 
1.414427e+00 
1.588948e-01 
1.414427e+00 
1.414427e+00 
1.414427e+00 
1.414427e+00 
1.414427e+00 
1.414427e+00 
1.414427e+00 
1.225917e+00 
1.414427e+00 
1.414426e+00 
1.414427e+00 
1.414427e+00 
1.414427e+00 
5.049841e-01 
1.414427e+00 
1.414427e+00 
1.414427e+00 
1.414427e+00 
1.344868e+00 
-7.403705e-11 
1.414427e+00 
7.817711e-01 
1.414427e+00 
1.414427e+00 
1.414427e+00 
1.414427e+00 
1.414427e+00 
1.414427e+00 
9.096969e-01 
1.370114e-10 
-5.943070e-10 
1.414427e+00 
1.414427e+00 
1.414427e+00 
1.414427e+00 
1.414427e+00 
1.361014e-01 
1.222497e+00 
1.414426e+00 
3.143618e-07 
1.714416e-01 
8.946239e-02 
-2.290477e-10 
8.345581e-07 
7.052225e-10 
1.933355e-07 
8.535081e-08 
-6.377224e-10 
-9.348558e-10 
-3.545295e-10 
5.537541e-10 
1.414427e+00 
9.492217e-11 
1.414427e+00 
1.414427e+00 
2.642158e-10 
-5.700860e-11 
1.414427e+00 
-2.920122e-10 
4.570889e-10 
9.966311e-01 
3.753726e-02 
1.414426e+00 
9.255466e-08 
-6.182243e-10 
7.777342e-01 
1.414425e+00 
1.414427e+00 
3.254203e-06 
-2.908831e-10 
3.017362e-10 
9.937405e-06 
3.516815e-10 
-4.679386e-11 
-1.721148e-10 
6.174923e-10 
-3.698033e-10 
-6.071348e-11 
1.596308e-10 
7.069819e-11 
-4.451119e-10 
2.424937e-10 
-9.318003e-11 
1.407208e-01 
-2.255534e-10 
-7.151768e-11 
1.414426e+00 
1.414427e+00 
-5.361842e-10 
1.090142e-10 
7.594330e-01 
1.414427e+00 
8.238029e-10 
3.349715e-11 
1.414427e+00 
1.414423e+00 
-6.636333e-11 
-2.138888e-10 
7.789459e-11 
-2.928924e-10 
-8.974273e-10 
1.322357e-06 
6.071523e-07 
6.482865e-01 
1.246173e+00 
1.414427e+00 
1.414427e+00 
1.414427e+00 
1.296513e+00 
1.368313e-06 
1.414427e+00 
1.414427e+00 
1.414427e+00 
1.414424e+00 
1.414427e+00 
-3.397330e-11 
-1.239703e-10 
5.137318e-10 
-4.490120e-10 
2.181328e-10 
6.157387e-10 
4.451128e-11 
5.672494e-11 
-4.121413e-10 
-4.443252e-10 
-7.480401e-10 
1.214742e-10 
6.164629e-10 
-2.144078e-10 
3.356012e-11 
2.558460e-10 
-2.526630e-10 
1.729318e-10 
1.793516e-10 
2.819240e-10 
-9.297903e-10 
1.020028e-09 
6.586938e-11 
2.092447e-10 
0.000000e+00 
-1.153754e-10 
4.776694e-10 
-6.723396e-10 
1.081774e-10 
-4.852688e-10 
3.897936e-10 
-9.817498e-11 
-2.519803e-10 
0.000000e+00 
3.729089e-11 
-9.583577e-12 
-3.099814e-10 
-1.137353e-09 
3.518642e-10 
6.233740e-11 
-2.047228e-10 
4.748356e-10 
-3.579661e-10 
0.000000e+00 
-7.789224e-10 
-4.638704e-10 
-4.878949e-10 
0.000000e+00 
-2.346390e-10 
3.671590e-10 
-5.613363e-11 
-2.005684e-10 
1.105811e-10 
7.538373e-10 
8.692121e-10 
-4.650468e-10 
1.414427e+00 
1.414427e+00 
1.414427e+00 
1.414427e+00 
1.414427e+00 
1.414426e+00 
1.379586e+00 
1.414427e+00 
1.414427e+00 
1.414427e+00 
1.414427e+00 
1.414427e+00 
1.414427e+00 
1.443586e-06 
3.821233e-01 
-2.099035e-10 
1.253560e+00 
1.284526e+00 
1.475539e-06 
1.414426e+00 
2.155866e-10 
2.048243e-10 
-5.182684e-10 
1.414427e+00 
1.414427e+00 
1.698058e-10 
2.335426e-07 
8.659909e-02 
2.484616e-06 
6.816096e-07 
5.528109e-08 
3.064078e-07 
2.761651e-10 
-1.961526e-10 
1.535159e-10 
4.469340e-10 
-5.079122e-10 
-7.718536e-10 
1.414427e+00 
-9.282416e-10 
2.658366e-10 
2.679502e-01 
6.496826e-10 
1.473662e-10 
4.179672e-10 
-1.796924e-10 
2.500223e-10 
1.431187e-06 
3.508082e-10 
-1.430628e-10 
-5.366212e-10 
-2.840692e-10 
2.691211e-10 
9.769893e-12 
2.053246e-10 
2.754428e-10 
2.270615e-10 
-1.616006e-10 
-1.933075e-10 
4.560274e-11 
-6.641775e-11 
2.571197e-11 
-5.955672e-11 
2.267014e-10 
8.703611e-11 
2.481886e-11 
-6.921141e-11 
3.359038e-10 
-4.774834e-10 
4.054720e-10 
-3.010345e-10 
-3.544479e-10 
-5.850193e-10 
-4.131355e-10 
1.535368e-11 
4.950151e-10 
-1.780322e-10 
-1.105899e-10 
0.000000e+00 
4.952751e-10 
2.244661e-10 
1.794833e-10 
6.227542e-10 
6.424818e-10 
0.000000e+00 
1.431686e-10 
4.534048e-10 
-4.745976e-11 
-3.413596e-10 
-7.022056e-10 
-4.458303e-10 
0.000000e+00 
-7.365814e-10 
1.110030e-09 
5.980666e-10 
-3.580914e-10 
2.294386e-10 
0.000000e+00 
-4.130433e-10 
8.173251e-11 
1.034543e-11 
1.425717e-10 
2.574762e-11 
2.956974e-10 
-2.533874e-10 
-8.294672e-10 
-8.361199e-10 
-9.080522e-11 
-5.638633e-10 
-9.493507e-11 
3.285759e-10 
-8.967077e-10 
2.579145e-10 
1.505054e-10 
4.484714e-10 
3.116054e-10 
0.000000e+00 
3.988906e-11 
-4.533014e-10 
-2.539267e-10 
3.327421e-10 
4.940520e-11 
-7.883677e-10 
-3.886860e-10 
-2.909646e-10 
4.239058e-10 
-4.184970e-10 
-1.260621e-10 
3.813282e-11 
5.629211e-10 
1.969504e-10 
</DataArray>
<DataArray type='Float32' NumberOfComponents='3' Name='velocity (cm/year)' Format='ascii'> 
0.000000e+00 0.000000e+00 0.000000e+00 
0.000000e+00 0.000000e+00 0.000000e+00 
-2.000000e+00 0.000000e+00 0.000000e+00 
-2.000000e+00 0.000000e+00 0.000000e+00 
-2.000000e+00 0.000000e+00 0.000000e+00 
-1.414427e+00 0.000000e+00 1.414427e+00 
-2.000000e+00 0.000000e+00 0.000000e+00 
-2.000000e+00 0.000000e+00 0.000000e+00 
-2.000000e+00 0.000000e+00 0.000000e+00 
-2.000000e+00 0.000000e+00 0.000000e+00 
-2.000000e+00 0.000000e+00 0.000000e+00 
-2.000000e+00 0.000000e+00 0.000000e+00 
-2.000000e+00 0.000000e+00 0.000000e+00 
-2.000000e+00 0.000000e+00 0.000000e+00 
-2.000000e+00 0.000000e+00 0.000000e+00 
-2.000000e+00 0.000000e+00 0.000000e+00 
-2.000000e+00 0.000000e+00 0.000000e+00 
-2.000000e+00 0.000000e+00 0.000000e+00 
-2.000000e+00 0.000000e+00 0.000000e+00 
-2.000000e+00 0.000000e+00 0.000000e+00 
-2.000000e+00 0.000000e+00 0.000000e+00 
-2.000000e+00 0.000000e+00 0.000000e+00 
-2.000000e+00 0.000000e+00 0.000000e+00 
-2.000000e+00 0.000000e+00 0.000000e+00 
-2.000000e+00 0.000000e+00 0.000000e+00 
-2.000000e+00 0.000000e+00 0.000000e+00 
-2.000000e+00 0.000000e+00 0.000000e+00 
-2.000000e+00 0.000000e+00 0.000000e+00 
-2.000000e+00 0.000000e+00 0.000000e+00 
-2.000000e+00 0.000000e+00 0.000000e+00 
-2.000000e+00 0.000000e+00 0.000000e+00 
-2.000000e+00 0.000000e+00 0.000000e+00 
0.000000e+00 0.000000e+00 0.000000e+00 
-2.000000e+00 0.000000e+00 0.000000e+00 
-2.000000e+00 0.000000e+00 0.000000e+00 
-2.000000e+00 0.000000e+00 0.000000e+00 
-1.414427e+00 0.000000e+00 1.414427e+00 
-1.414427e+00 0.000000e+00 1.414427e+00 
-1.414427e+00 0.000000e+00 1.414427e+00 
-1.414427e+00 0.000000e+00 1.414427e+00 
-1.414427e+00 0.000000e+00 1.414427e+00 
-2.000000e+00 0.000000e+00 0.000000e+00 
-1.414427e+00 0.000000e+00 1.414427e+00 
-2.000000e+00 0.000000e+00 0.000000e+00 
-1.414427e+00 0.000000e+00 1.414427e+00 
-1.414427e+00 0.000000e+00 1.414427e+00 
-1.414427e+00 0.000000e+00 1.414427e+00 
-2.000000e+00 0.000000e+00 0.000000e+00 
-1.414427e+00 0.000000e+00 1.414427e+00 
-1.414427e+00 0.000000e+00 1.414427e+00 
-2.000000e+00 0.000000e+00 0.000000e+00 
-1.414427e+00 0.000000e+00 1.414427e+00 
-1.414427e+00 0.000000e+00 1.414427e+00 
-1.414427e+00 0.000000e+00 1.414427e+00 
-1.414427e+00 0.000000e+00 1.414427e+00 
-1.414427e+00 0.000000e+00 1.414427e+00 
-1.414427e+00 0.000000e+00 1.414427e+00 
-1.414427e+00 0.000000e+00 1.414427e+00 
-1.414427e+00 0.000000e+00 1.414427e+00 
-1.414427e+00 0.000000e+00 1.414427e+00 
-1.414427e+00 0.000000e+00 1.414427e+00 
-1.414427e+00 0.000000e+00 1.414427e+00 
-1.414427e+00 0.000000e+00 1.414427e+00 
-1.414427e+00 0.000000e+00 1.414427e+00 
-2.000000e+00 0.000000e+00 0.000000e+00 
-1.414427e+00 0.000000e+00 1.414427e+00 
-1.414427e+00 0.000000e+00 1.414427e+00 
-1.414427e+00 0.000000e+00 1.414427e+00 
-1.414427e+00 0.000000e+00 1.414427e+00 
-1.414427e+00 0.000000e+00 1.414427e+00 
0.000000e+00 0.000000e+00 0.000000e+00 
-1.414427e+00 0.000000e+00 1.414427e+00 
-1.414427e+00 0.000000e+00 1.414427e+00 
-1.414427e+00 0.000000e+00 1.414427e+00 
-1.414427e+00 0.000000e+00 1.414427e+00 
-1.414427e+00 0.000000e+00 1.414427e+00 
-1.414427e+00 0.000000e+00 1.414427e+00 
-1.414427e+00 0.000000e+00 1.414427e+00 
-1.414427e+00 0.000000e+00 1.414427e+00 
-1.414427e+00 0.000000e+00 1.414427e+00 
0.000000e+00 0.000000e+00 0.000000e+00 
0.000000e+00 0.000000e+00 0.000000e+00 
-1.414427e+00 0.000000e+00 1.414427e+00 
-1.414427e+00 0.000000e+00 1.414427e+00 
-1.414427e+00 0.000000e+00 1.414427e+00 
-1.414427e+00 0.000000e+00 1.414427e+00 
-1.414427e+00 0.000000e+00 1.414427e+00 
0.000000e+00 0.000000e+00 0.000000e+00 
-1.414427e+00 0.000000e+00 1.414427e+00 
-1.414427e+00 0.000000e+00 1.414427e+00 
0.000000e+00 0.000000e+00 0.000000e+00 
0.000000e+00 0.000000e+00 0.000000e+00 
0.000000e+00 0.000000e+00 0.000000e+00 
0.000000e+00 0.000000e+00 0.000000e+00 
0.000000e+00 0.000000e+00 0.000000e+00 
0.000000e+00 0.000000e+00 0.000000e+00 
0.000000e+00 0.000000e+00 0.000000e+00 
0.000000e+00 0.000000e+00 0.000000e+00 
0.000000e+00 0.000000e+00 0.000000e+00 
0.000000e+00 0.000000e+00 0.000000e+00 
0.000000e+00 0.000000e+00 0.000000e+00 
0.000000e+00 0.000000e+00 0.000000e+00 
-1.414427e+00 0.000000e+00 1.414427e+00 
0.000000e+00 0.000000e+00 0.000000e+00 
-1.414427e+00 0.000000e+00 1.414427e+00 
-1.414427e+00 0.000000e+00 1.414427e+00 
0.000000e+00 0.000000e+00 0.000000e+00 
0.000000e+00 0.000000e+00 0.000000e+00 
-1.414427e+00 0.000000e+00 1.414427e+00 
0.000000e+00 0.000000e+00 0.000000e+00 
0.000000e+00 0.000000e+00 0.000000e+00 
-1.414427e+00 0.000000e+00 1.414427e+00 
0.000000e+00 0.000000e+00 0.000000e+00 
-1.414427e+00 0.000000e+00 1.414427e+00 
0.000000e+00 0.000000e+00 0.000000e+00 
0.000000e+00 0.000000e+00 0.000000e+00 
0.000000e+00 0.000000e+00 0.000000e+00 
-1.414427e+00 0.000000e+00 1.414427e+00 
-1.414427e+00 0.000000e+00 1.414427e+00 
0.000000e+00 0.000000e+00 0.000000e+00 
0.000000e+00 0.000000e+00 0.000000e+00 
0.000000e+00 0.000000e+00 0.000000e+00 
0.000000e+00 0.000000e+00 0.000000e+00 
-2.000000e+00 0.000000e+00 0.000000e+00 
-2.000000e+00 0.000000e+00 0.000000e+00 
-2.000000e+00 0.000000e+00 0.000000e+00 
-2.000000e+00 0.000000e+00 0.000000e+00 
-2.000000e+00 0.000000e+00 0.000000e+00 
-2.000000e+00 0.000000e+00 0.000000e+00 
-2.000000e+00 0.000000e+00 0.000000e+00 
-2.000000e+00 0.000000e+00 0.000000e+00 