<VTKFile type='UnstructuredGrid' version='0.1' byte_order='BigEndian'> 
<UnstructuredGrid> 
<Piece NumberOfPoints='   353 ' NumberOfCells='   637 '> 
<Points> 
<DataArray type='Float32' NumberOfComponents='3' Format='ascii'> 
0.000000e+00 0.000000e+00 0.000000e+00 
0.000000e+00 5.000000e+04 0.000000e+00 
2.000000e+05 5.000000e+04 0.000000e+00 
2.000000e+05 0.000000e+00 0.000000e+00 
1.310720e+05 0.000000e+00 3.293307e-02 
1.000000e+05 5.000000e+04 1.451899e+00 
1.655360e+05 0.000000e+00 2.740056e-02 
1.569200e+05 0.000000e+00 8.104127e-02 
1.827680e+05 0.000000e+00 6.905369e-02 
1.511714e+05 6.663383e+03 6.013864e-02 
1.500000e+05 5.000000e+04 5.581250e-02 
1.396880e+05 0.000000e+00 6.613670e-02 
1.396880e+05 2.532102e+04 1.452829e-02 
1.439960e+05 5.597312e+03 4.400757e-02 
1.526120e+05 2.094823e+03 1.621645e-02 
1.483040e+05 0.000000e+00 9.059468e-02 
1.566099e+05 5.543921e+03 5.887472e-03 
2.000000e+05 3.276800e+04 0.000000e+00 
1.444752e+05 1.042262e+04 7.468082e-03 
1.483179e+05 1.338016e+04 6.869426e-02 
1.396880e+05 1.119462e+04 3.368712e-02 
1.546754e+05 1.995101e+04 4.044891e-02 
1.569200e+05 1.108784e+04 8.425166e-02 
1.523211e+05 1.111634e+04 1.855641e-03 
1.642561e+05 7.896923e+03 6.073033e-03 
1.614575e+05 3.391147e+03 9.149894e-02 
1.913840e+05 0.000000e+00 5.089362e-02 
1.641271e+05 1.762887e+04 9.096372e-03 
1.741520e+05 0.000000e+00 9.871854e-02 
1.619979e+05 1.273383e+04 9.466457e-02 
1.589537e+05 1.696852e+04 1.125746e-02 
1.353800e+05 5.597312e+03 4.231756e-02 
6.553600e+04 0.000000e+00 1.350695e-02 
1.314330e+05 1.309166e+04 3.121721e-02 
1.351254e+05 1.024977e+04 6.214188e-02 
1.282498e+05 6.628621e+03 8.732726e-02 
1.146880e+05 0.000000e+00 1.484105e+00 
1.124309e+05 1.843517e+04 1.419566e+00 
9.830400e+04 0.000000e+00 1.431547e+00 
1.214360e+05 1.399995e+04 1.383313e+00 
1.228800e+05 0.000000e+00 1.284239e+00 
1.262599e+05 1.162409e+04 3.754549e-01 
1.209227e+05 6.872557e+03 1.321081e+00 
1.269760e+05 2.171186e+03 3.088661e-01 
1.143290e+05 1.092966e+04 1.452874e+00 
1.187840e+05 2.548444e+03 1.417445e+00 
1.165754e+05 1.549055e+04 1.487058e+00 
1.383830e+05 3.367874e+04 9.674144e-02 
1.183327e+05 2.235291e+04 1.512037e+00 
1.019938e+05 1.180280e+04 1.480784e+00 
1.267409e+05 2.072382e+04 1.942756e-01 
1.168967e+05 2.714785e+04 1.450712e+00 
1.083053e+05 1.339901e+04 1.483436e+00 
1.027280e+05 2.217572e+04 1.481806e+00 
1.064960e+05 0.000000e+00 1.425810e+00 
1.040703e+05 1.686826e+04 1.437924e+00 
9.534755e+04 1.748569e+04 1.450762e+00 
1.099109e+05 8.733897e+03 1.465561e+00 
1.229068e+05 2.344792e+04 1.306719e+00 
1.117799e+05 3.147145e+04 1.464426e+00 
1.184650e+05 3.190116e+04 1.417176e+00 
1.128892e+05 2.414895e+04 1.496686e+00 
1.081008e+05 2.165776e+04 1.457442e+00 
1.060078e+05 2.807192e+04 1.466327e+00 
1.250000e+05 5.000000e+04 5.269255e-01 
8.426815e+04 2.406956e+04 1.457161e+00 
9.713560e+04 2.914679e+04 1.453250e+00 
1.013526e+05 2.680108e+04 1.491624e+00 
9.662092e+04 2.325808e+04 1.424691e+00 
8.008965e+04 1.845415e+04 1.399940e+00 
5.000000e+04 5.000000e+04 1.780495e-02 
9.612128e+04 3.441540e+04 1.484008e+00 
7.555137e+04 8.686183e+03 7.855901e-01 
8.507841e+04 3.128206e+04 1.442084e+00 
9.073859e+04 2.673905e+04 1.448844e+00 
9.047435e+04 2.083293e+04 1.478118e+00 
8.915325e+04 1.507040e+04 1.419635e+00 
8.585091e+04 1.953601e+04 1.460358e+00 
8.231038e+04 3.799135e+04 1.435322e+00 
7.500000e+04 5.000000e+04 9.380497e-01 
6.037954e+04 8.109716e+03 4.762624e-02 
4.934371e+04 2.328941e+04 9.587481e-02 
1.005203e+05 4.159553e+04 1.462520e+00 
9.469874e+04 9.998989e+03 1.510020e+00 
1.013509e+05 3.321602e+04 1.431182e+00 
9.070152e+04 3.249041e+04 1.506854e+00 
8.750000e+04 5.000000e+04 1.450839e+00 
7.096717e+04 2.938589e+04 1.550664e-01 
7.697941e+04 2.513087e+04 1.297473e+00 
8.112958e+04 2.807391e+04 1.505656e+00 
6.595903e+04 1.593442e+04 6.674260e-04 
7.268989e+04 1.906988e+04 1.983172e-01 
7.182853e+04 2.422788e+04 1.665535e-01 
6.168282e+04 2.518453e+04 3.417897e-02 
6.688266e+04 2.605287e+04 2.415867e-02 
6.264723e+04 3.541252e+04 8.629862e-04 
6.503396e+04 2.112024e+04 4.002295e-03 
6.352261e+04 3.017052e+04 6.190771e-02 
4.915200e+04 0.000000e+00 9.838151e-02 
5.321168e+04 3.114274e+04 9.984951e-02 
6.089337e+04 1.770620e+04 5.035995e-02 
5.823810e+04 2.928803e+04 2.390957e-03 
9.953501e+04 6.093312e+03 1.446670e+00 
3.276800e+04 0.000000e+00 7.874021e-02 
9.770107e+04 1.351027e+04 1.497618e+00 
8.192000e+04 0.000000e+00 1.478392e+00 
5.796953e+04 2.179569e+04 2.295142e-02 
5.411296e+04 1.594841e+04 5.272371e-02 
9.011200e+04 0.000000e+00 1.462162e+00 
5.333060e+04 2.065986e+04 6.270043e-02 
5.413665e+04 2.591112e+04 2.626781e-02 
7.602709e+04 1.440340e+04 1.091438e+00 
7.050877e+04 1.198417e+04 1.270033e-01 
8.168267e+04 1.105441e+04 1.430705e+00 
6.525849e+04 1.053233e+04 2.913214e-02 
6.483972e+04 5.251476e+03 8.731696e-02 
7.372800e+04 0.000000e+00 8.056228e-01 
8.030694e+04 5.495120e+03 1.508888e+00 
8.626006e+04 1.149592e+04 1.465951e+00 
7.040374e+04 6.319545e+03 6.961816e-02 
5.848944e+04 1.302292e+04 7.046958e-02 
5.189415e+04 7.892811e+03 2.140695e-02 
6.963200e+04 1.879488e+03 2.850207e-02 
1.424909e+05 1.825782e+04 2.549463e-02 
1.351976e+05 1.945132e+04 6.832439e-02 
1.485221e+05 1.954351e+04 6.941276e-02 
1.507482e+05 3.259003e+04 1.316768e-02 
1.511979e+05 2.580012e+04 8.863580e-02 
1.616825e+05 2.807525e+04 4.203251e-02 
1.597445e+05 2.266280e+04 2.412433e-02 
1.564493e+05 2.689586e+04 4.352313e-02 
1.453073e+05 2.881986e+04 9.794723e-02 
1.447661e+05 3.541197e+04 5.598841e-02 
1.447611e+05 2.343530e+04 6.248679e-02 
1.306402e+05 3.027233e+04 2.325484e-01 
1.512206e+05 4.133139e+04 9.619540e-02 
1.408122e+05 2.977730e+04 7.604325e-02 
1.187500e+05 5.000000e+04 1.456119e+00 
1.147692e+05 3.718187e+04 1.473268e+00 
1.491989e+05 3.705719e+04 9.010092e-02 
1.375000e+05 5.000000e+04 7.892629e-02 
1.243990e+05 3.998777e+04 8.172270e-01 
1.074106e+05 3.739633e+04 1.449174e+00 
1.395701e+05 4.192748e+04 3.684374e-02 
1.453874e+05 4.147522e+04 7.359077e-02 
1.125000e+05 5.000000e+04 1.470761e+00 
1.200601e+05 3.695115e+04 1.416014e+00 
1.407597e+05 3.754650e+04 7.100835e-02 
1.484014e+05 4.535468e+04 9.037594e-02 
1.437500e+05 5.000000e+04 7.977025e-02 
1.406250e+05 4.649968e+04 8.974862e-02 
1.383468e+05 1.581461e+04 9.104678e-02 
1.306339e+05 1.785875e+04 5.343631e-02 
1.337495e+05 2.521163e+04 7.887705e-02 
1.247668e+05 3.268755e+04 6.860561e-01 
1.220997e+05 2.841742e+04 1.255876e+00 
1.060909e+05 3.282715e+04 1.449745e+00 
1.062500e+05 5.000000e+04 1.445643e+00 
1.028045e+05 3.759101e+04 1.507825e+00 
1.232165e+05 4.508290e+04 1.365241e+00 
1.312500e+05 5.000000e+04 5.410307e-02 
1.156250e+05 4.394330e+04 1.476634e+00 
1.031250e+05 4.597513e+04 1.426898e+00 
1.092868e+05 4.441657e+04 1.467858e+00 
1.198408e+05 4.171472e+04 1.484419e+00 
1.111733e+05 4.015155e+04 1.453846e+00 
1.707321e+05 1.284956e+04 2.457197e-02 
1.907575e+05 1.956923e+04 4.069113e-02 
1.815955e+05 2.853574e+04 3.236122e-02 
1.790829e+05 1.221776e+04 6.853067e-02 
1.708285e+05 1.993654e+04 1.418418e-02 
1.747315e+05 1.020703e+04 9.062112e-03 
1.751950e+05 1.633300e+04 3.125407e-02 
1.750000e+05 5.000000e+04 6.957405e-02 
1.771145e+05 2.310613e+04 7.596992e-02 
1.658400e+05 2.353894e+04 6.593595e-02 
1.715321e+05 3.292900e+04 9.347381e-02 
1.673157e+05 2.906467e+04 3.656081e-02 
1.728972e+05 2.720706e+04 2.977542e-03 
1.625000e+05 5.000000e+04 4.878389e-02 
1.576761e+05 3.365249e+04 4.436401e-02 
1.637238e+05 3.298379e+04 1.794109e-02 
1.767457e+05 3.114899e+04 6.673771e-02 
1.709898e+05 4.396635e+04 3.413116e-02 
1.768219e+05 3.989760e+04 2.383512e-02 
1.821641e+05 3.539788e+04 3.275280e-02 
1.856011e+05 3.165848e+04 9.437834e-02 
1.906627e+05 3.123909e+04 7.653280e-04 
1.615916e+05 4.138255e+04 3.602503e-02 
1.810605e+05 1.832923e+04 2.796525e-02 
2.000000e+05 1.638400e+04 0.000000e+00 
1.676665e+05 3.845476e+04 4.324841e-02 
1.724762e+05 3.770440e+04 2.203202e-02 
1.687500e+05 5.000000e+04 9.189203e-02 
1.875000e+05 5.000000e+04 5.010444e-02 
1.819048e+05 2.371661e+04 6.980483e-02 
1.857289e+05 2.035739e+04 1.623245e-02 
1.870702e+05 1.247917e+04 4.646302e-02 
1.890939e+05 2.539104e+04 6.064785e-02 
2.000000e+05 2.457600e+04 0.000000e+00 
1.946993e+05 2.702178e+04 2.498141e-02 
1.840029e+05 4.300194e+04 4.597147e-02 
1.886643e+05 3.787438e+04 8.548276e-02 
1.760248e+05 4.496934e+04 8.316307e-02 
1.832577e+05 6.812341e+03 2.274993e-02 
1.784600e+05 3.733458e+03 5.379691e-02 
1.898875e+05 6.467890e+03 7.614028e-02 
1.870760e+05 2.410322e+03 3.953358e-02 
1.941270e+05 1.212068e+04 6.733106e-02 
2.000000e+05 8.192000e+03 0.000000e+00 
1.954521e+05 4.348304e+03 9.722903e-02 
1.962415e+05 2.048000e+04 5.538187e-02 
1.812500e+05 5.000000e+04 6.808033e-02 
2.000000e+05 4.138400e+04 0.000000e+00 
1.904306e+05 4.416269e+04 7.322226e-02 
1.943168e+05 3.967893e+04 3.221370e-02 
1.937500e+05 5.000000e+04 4.998174e-02 
1.968750e+05 4.569200e+04 3.606895e-02 
1.698440e+05 4.750437e+03 3.072764e-02 
1.907395e+05 1.507471e+04 1.359790e-02 
1.804201e+05 4.563305e+04 2.256252e-02 
1.743193e+05 5.659087e+03 5.443330e-02 
1.047716e+05 7.222340e+03 1.439611e+00 
1.105920e+05 3.433039e+03 1.419022e+00 
8.760935e+04 3.692402e+04 1.494799e+00 
8.616694e+04 4.345040e+04 1.442991e+00 
9.322272e+04 4.158723e+04 1.508046e+00 
8.125000e+04 5.000000e+04 1.474366e+00 
7.812500e+04 4.367292e+04 1.418626e+00 
9.226588e+04 3.702886e+04 1.501736e+00 
9.687460e+04 3.889152e+04 1.504145e+00 
9.375000e+04 5.000000e+04 1.446528e+00 
9.062500e+04 4.597295e+04 1.427015e+00 
9.687500e+04 4.558818e+04 1.478519e+00 
8.220222e+04 4.559442e+04 1.498697e+00 
6.935989e+04 4.351159e+04 6.085028e-02 
7.444533e+04 3.657988e+04 4.605981e-01 
6.250000e+04 5.000000e+04 4.124233e-02 
7.636883e+04 3.121210e+04 1.315475e+00 
7.803054e+04 3.922095e+04 1.311003e+00 
6.865041e+04 3.494381e+04 4.069025e-02 
8.070629e+04 3.340392e+04 1.452464e+00 
4.836011e+04 4.697869e+03 3.846502e-02 
5.734400e+04 0.000000e+00 3.995516e-02 
5.324800e+04 2.999702e+03 8.071825e-02 
9.404796e+04 4.246006e+03 1.431409e+00 
8.817387e+04 5.743883e+03 1.434934e+00 
4.378652e+04 1.445933e+04 2.546728e-02 
1.343750e+05 4.489695e+04 9.709637e-02 
1.287740e+05 4.368797e+04 1.387019e-01 
1.305910e+05 3.710309e+04 5.168155e-03 
1.337484e+05 3.371028e+04 8.353521e-02 
1.349180e+05 3.981779e+04 8.735319e-02 
1.360094e+05 2.946124e+04 8.209088e-02 
1.562500e+05 4.645979e+04 3.587250e-02 
1.564065e+05 4.127593e+04 7.345289e-02 
1.607347e+05 4.582949e+04 3.054290e-02 
1.659786e+05 4.553869e+04 1.373145e-02 
1.540871e+05 3.697223e+04 8.652299e-02 
1.949392e+05 3.439852e+04 8.329600e-02 
1.150036e+05 5.913623e+03 1.435537e+00 
6.598453e+04 3.947783e+04 8.798090e-02 
5.796379e+04 4.265973e+04 2.459162e-03 
7.370868e+04 4.542693e+04 2.988567e-01 
2.500000e+04 5.000000e+04 1.295557e-03 
4.927510e+04 1.294757e+04 1.710427e-02 
4.774972e+04 1.812884e+04 1.632587e-02 
4.049866e+04 2.319498e+04 7.158293e-02 
4.096000e+04 0.000000e+00 2.965876e-02 
6.875000e+04 5.000000e+04 1.901660e-02 
6.330730e+04 4.442929e+04 1.840606e-02 
5.625000e+04 5.000000e+04 3.119620e-02 
5.645086e+04 3.654510e+04 8.621705e-02 
4.953164e+04 4.150158e+04 6.068637e-02 
5.312500e+04 4.556566e+04 1.023287e-02 
5.094866e+04 3.617189e+04 6.849938e-02 
2.936771e+04 1.401905e+04 5.362462e-02 
4.742115e+04 3.156084e+04 4.484523e-02 
3.686400e+04 8.306615e+03 5.275704e-02 
3.686400e+04 3.143437e+03 6.514961e-02 
4.488520e+04 2.661225e+04 8.007081e-02 
3.496785e+04 3.481857e+04 5.052813e-02 
3.901887e+04 2.961851e+04 6.355493e-02 
4.195072e+04 3.608049e+04 4.672910e-02 
2.831342e+04 2.545657e+04 6.340663e-02 
3.457043e+04 2.521151e+04 3.884791e-02 
3.163034e+04 3.014488e+04 4.148686e-02 
2.446831e+04 3.878784e+04 5.166574e-02 
2.459558e+04 3.160440e+04 7.150122e-02 
2.919290e+04 3.541399e+04 2.785083e-02 
3.123138e+04 1.995819e+04 9.248624e-02 
3.602709e+04 4.544537e+04 4.915460e-02 
3.615512e+04 1.515118e+04 8.555087e-02 
3.750000e+04 5.000000e+04 6.903973e-02 
3.747728e+04 4.088345e+04 9.563278e-02 
3.972208e+04 1.206161e+04 6.824514e-02 
4.271201e+04 6.820658e+03 4.268337e-02 
3.632738e+04 2.025279e+04 4.058649e-02 
1.430406e+04 2.834099e+04 6.076808e-02 
3.156035e+04 4.372422e+04 7.538706e-02 
0.000000e+00 3.750000e+04 0.000000e+00 
4.346434e+04 4.197500e+04 1.293100e-02 
4.375000e+04 5.000000e+04 6.238605e-03 
4.687500e+04 4.591011e+04 1.081431e-02 
1.422274e+04 2.113345e+04 8.424476e-03 
9.340184e+03 6.252501e+03 5.643114e-03 
0.000000e+00 2.500000e+04 0.000000e+00 
4.085408e+04 4.608550e+04 2.495239e-02 
2.422049e+04 1.889619e+04 1.131741e-02 
2.072487e+04 2.506554e+04 6.852421e-02 
1.925338e+04 2.015678e+04 6.158128e-02 
1.512838e+04 1.570157e+04 9.656567e-02 
1.848986e+04 3.508907e+04 9.605179e-02 
0.000000e+00 6.250000e+03 0.000000e+00 
5.578663e+03 1.137725e+04 9.496151e-02 
1.118800e+04 1.233507e+04 2.806729e-03 
1.360626e+04 3.344609e+04 2.279390e-02 
1.918796e+04 2.998379e+04 9.261515e-02 
1.928611e+04 9.869498e+03 4.754539e-02 
0.000000e+00 1.250000e+04 0.000000e+00 
8.160624e+03 2.285369e+04 7.568061e-02 
1.250000e+04 5.000000e+04 4.235484e-02 
2.059257e+04 1.501735e+04 5.430932e-02 
9.873490e+03 1.734826e+04 3.159295e-02 
3.272355e+03 1.831366e+04 2.417210e-02 
1.638400e+04 0.000000e+00 8.717576e-03 
9.227661e+03 3.616211e+04 6.068526e-02 
8.192000e+03 0.000000e+00 9.527468e-02 
1.750991e+04 4.335397e+04 9.867271e-02 
1.402273e+04 3.900495e+04 7.652272e-02 
7.958570e+03 4.376808e+04 9.334072e-02 
4.096000e+03 3.125000e+03 3.622278e-02 
1.228800e+04 2.479501e+03 2.981765e-02 
1.431203e+04 8.064072e+03 9.235064e-02 
1.992535e+04 3.944982e+04 6.001193e-02 
1.279718e+04 4.501272e+04 6.691025e-02 
6.250000e+03 5.000000e+04 1.254000e-03 
4.980839e+03 3.936237e+04 2.285316e-02 
0.000000e+00 4.375000e+04 0.000000e+00 
2.969763e+04 6.677180e+03 7.309984e-02 
3.260005e+04 1.048595e+04 8.258034e-02 
2.506649e+04 1.014742e+04 7.572985e-02 
2.457600e+04 0.000000e+00 3.396954e-02 
1.775851e+04 4.651386e+03 3.816266e-02 
2.867200e+04 2.161050e+03 8.623544e-02 
3.125000e+04 5.000000e+04 9.895665e-02 
3.804649e+03 3.125000e+04 4.849940e-02 
9.177654e+03 3.024051e+04 1.947671e-02 
4.731499e+03 2.640276e+04 6.244364e-02 
2.586763e+04 4.434017e+04 5.359247e-02 
1.875000e+04 5.000000e+04 3.616659e-02 
2.142745e+04 4.606170e+04 2.305103e-02 
2.309895e+04 5.156959e+03 3.853476e-02 
</DataArray>
</Points> 
<PointData Scalars='scalars'>
<DataArray type='Float32' Name='elevation' Format='ascii'> 
0.000000e+00 
0.000000e+00 
0.000000e+00 
0.000000e+00 
3.293307e-02 
1.451899e+00 
2.740056e-02 
8.104127e-02 
6.905369e-02 
6.013864e-02 
5.581250e-02 
6.613670e-02 
1.452829e-02 
4.400757e-02 
1.621645e-02 
9.059468e-02 
5.887472e-03 
0.000000e+00 
7.468082e-03 
6.869426e-02 
3.368712e-02 
4.044891e-02 
8.425166e-02 
1.855641e-03 
6.073033e-03 
9.149894e-02 
5.089362e-02 
9.096372e-03 
9.871854e-02 
9.466457e-02 
1.125746e-02 
4.231756e-02 
1.350695e-02 
3.121721e-02 
6.214188e-02 
8.732726e-02 
1.484105e+00 
1.419566e+00 
1.431547e+00 
1.383313e+00 
1.284239e+00 
3.754549e-01 
1.321081e+00 
3.088661e-01 
1.452874e+00 
1.417445e+00 
1.487058e+00 
9.674144e-02 
1.512037e+00 
1.480784e+00 
1.942756e-01 
1.450712e+00 
1.483436e+00 
1.481806e+00 
1.425810e+00 
1.437924e+00 
1.450762e+00 
1.465561e+00 
1.306719e+00 
1.464426e+00 
1.417176e+00 
1.496686e+00 
1.457442e+00 
1.466327e+00 
5.269255e-01 
1.457161e+00 
1.453250e+00 
1.491624e+00 
1.424691e+00 
1.399940e+00 
1.780495e-02 
1.484008e+00 
7.855901e-01 
1.442084e+00 
1.448844e+00 
1.478118e+00 
1.419635e+00 
1.460358e+00 
1.435322e+00 
9.380497e-01 
4.762624e-02 
9.587481e-02 
1.462520e+00 
1.510020e+00 
1.431182e+00 
1.506854e+00 
1.450839e+00 
1.550664e-01 
1.297473e+00 
1.505656e+00 
6.674260e-04 
1.983172e-01 
1.665535e-01 
3.417897e-02 
2.415867e-02 
8.629862e-04 
4.002295e-03 
6.190771e-02 
9.838151e-02 
9.984951e-02 
5.035995e-02 
2.390957e-03 
1.446670e+00 
7.874021e-02 
1.497618e+00 
1.478392e+00 
2.295142e-02 
5.272371e-02 
1.462162e+00 
6.270043e-02 
2.626781e-02 
1.091438e+00 
1.270033e-01 
1.430705e+00 
2.913214e-02 
8.731696e-02 
8.056228e-01 
1.508888e+00 
1.465951e+00 
6.961816e-02 
7.046958e-02 
2.140695e-02 
2.850207e-02 
2.549463e-02 
6.832439e-02 
6.941276e-02 
1.316768e-02 
8.863580e-02 
4.203251e-02 
2.412433e-02 
4.352313e-02 
9.794723e-02 
5.598841e-02 
6.248679e-02 
2.325484e-01 
9.619540e-02 
7.604325e-02 
1.456119e+00 
1.473268e+00 
9.010092e-02 
7.892629e-02 
8.172270e-01 
1.449174e+00 
3.684374e-02 
7.359077e-02 
1.470761e+00 
1.416014e+00 
7.100835e-02 
9.037594e-02 
7.977025e-02 
8.974862e-02 
9.104678e-02 
5.343631e-02 
7.887705e-02 
6.860561e-01 
1.255876e+00 
1.449745e+00 
1.445643e+00 
1.507825e+00 
1.365241e+00 
5.410307e-02 
1.476634e+00 
1.426898e+00 
1.467858e+00 
1.484419e+00 
1.453846e+00 
2.457197e-02 
4.069113e-02 
3.236122e-02 
6.853067e-02 
1.418418e-02 
9.062112e-03 
3.125407e-02 
6.957405e-02 
7.596992e-02 
6.593595e-02 
9.347381e-02 
3.656081e-02 
2.977542e-03 
4.878389e-02 
4.436401e-02 
1.794109e-02 
6.673771e-02 
3.413116e-02 
2.383512e-02 
3.275280e-02 
9.437834e-02 
7.653280e-04 
3.602503e-02 
2.796525e-02 
0.000000e+00 
4.324841e-02 
2.203202e-02 
9.189203e-02 
5.010444e-02 
6.980483e-02 
1.623245e-02 
4.646302e-02 
6.064785e-02 
0.000000e+00 
2.498141e-02 
4.597147e-02 
8.548276e-02 
8.316307e-02 
2.274993e-02 
5.379691e-02 
7.614028e-02 
3.953358e-02 
6.733106e-02 
0.000000e+00 
9.722903e-02 
5.538187e-02 
6.808033e-02 
0.000000e+00 
7.322226e-02 
3.221370e-02 
4.998174e-02 
3.606895e-02 
3.072764e-02 
1.359790e-02 
2.256252e-02 
5.443330e-02 
1.439611e+00 
1.419022e+00 
1.494799e+00 
1.442991e+00 
1.508046e+00 
1.474366e+00 
1.418626e+00 
1.501736e+00 
1.504145e+00 
1.446528e+00 
1.427015e+00 
1.478519e+00 
1.498697e+00 
6.085028e-02 
4.605981e-01 
4.124233e-02 
1.315475e+00 
1.311003e+00 
4.069025e-02 
1.452464e+00 
3.846502e-02 
3.995516e-02 
8.071825e-02 
1.431409e+00 
1.434934e+00 
2.546728e-02 
9.709637e-02 
1.387019e-01 
5.168155e-03 
8.353521e-02 
8.735319e-02 
8.209088e-02 
3.587250e-02 
7.345289e-02 
3.054290e-02 
1.373145e-02 
8.652299e-02 
8.329600e-02 
1.435537e+00 
8.798090e-02 
2.459162e-03 
2.988567e-01 
1.295557e-03 
1.710427e-02 
1.632587e-02 
7.158293e-02 
2.965876e-02 
1.901660e-02 
1.840606e-02 
3.119620e-02 
8.621705e-02 
6.068637e-02 
1.023287e-02 
6.849938e-02 
5.362462e-02 
4.484523e-02 
5.275704e-02 
6.514961e-02 
8.007081e-02 
5.052813e-02 
6.355493e-02 
4.672910e-02 
6.340663e-02 
3.884791e-02 
4.148686e-02 
5.166574e-02 
7.150122e-02 
2.785083e-02 
9.248624e-02 
4.915460e-02 
8.555087e-02 
6.903973e-02 
9.563278e-02 
6.824514e-02 
4.268337e-02 
4.058649e-02 
6.076808e-02 
7.538706e-02 
0.000000e+00 
1.293100e-02 
6.238605e-03 
1.081431e-02 
8.424476e-03 
5.643114e-03 
0.000000e+00 
2.495239e-02 
1.131741e-02 
6.852421e-02 
6.158128e-02 
9.656567e-02 
9.605179e-02 
0.000000e+00 
9.496151e-02 
2.806729e-03 
2.279390e-02 
9.261515e-02 
4.754539e-02 
0.000000e+00 
7.568061e-02 
4.235484e-02 
5.430932e-02 
3.159295e-02 
2.417210e-02 
8.717576e-03 
6.068526e-02 
9.527468e-02 
9.867271e-02 
7.652272e-02 
9.334072e-02 
3.622278e-02 
2.981765e-02 
9.235064e-02 
6.001193e-02 
6.691025e-02 
1.254000e-03 
2.285316e-02 
0.000000e+00 
7.309984e-02 
8.258034e-02 
7.572985e-02 
3.396954e-02 
3.816266e-02 
8.623544e-02 
9.895665e-02 
4.849940e-02 
1.947671e-02 
6.244364e-02 
5.359247e-02 
3.616659e-02 
2.305103e-02 
3.853476e-02 
</DataArray>
<DataArray type='Float32' Name='elevation change (dz)' Format='ascii'> 
-4.745707e-02 
-6.574725e-02 
-6.664105e-02 
-1.426004e-02 
3.184702e-02 
1.414423e+00 
-4.257388e-06 
6.469627e-06 
-5.575025e-06 
-7.066384e-06 
-6.504193e-06 
4.592206e-06 
-1.993513e-06 
2.087666e-06 
-1.028439e-05 
-2.617450e-06 
5.039674e-06 
-8.188201e-02 
7.118449e-06 
-2.859266e-07 
-1.284024e-05 
-1.251949e-05 
1.132412e-05 
-4.789056e-06 
-5.436599e-06 
-4.422680e-06 
1.026383e-06 
-1.426604e-06 
5.138630e-06 
-6.727264e-06 
4.700519e-06 
-3.102118e-06 
-1.746034e-09 
-3.686327e-05 
-3.317314e-06 
7.097485e-02 
1.414422e+00 
1.414431e+00 
1.414426e+00 
1.301743e+00 
1.244187e+00 
3.335709e-01 
1.261484e+00 
2.611892e-01 
1.414415e+00 
1.414396e+00 
1.414425e+00 
-4.447689e-06 
1.414407e+00 
1.414425e+00 
1.586411e-01 
1.414399e+00 
1.414425e+00 
1.414428e+00 
1.414427e+00 
1.414427e+00 
1.414430e+00 
1.414426e+00 
1.225708e+00 
1.414425e+00 
1.414362e+00 
1.414429e+00 
1.414426e+00 
1.414428e+00 
5.047087e-01 
1.414437e+00 
1.414426e+00 
1.414432e+00 
1.414430e+00 
1.344943e+00 
-7.404053e-11 
1.414418e+00 
7.819055e-01 
1.414429e+00 
1.414427e+00 
1.414425e+00 
1.414429e+00 
1.414432e+00 
1.414443e+00 
9.098601e-01 
1.369275e-10 
-5.943156e-10 
1.414417e+00 
1.414431e+00 
1.414426e+00 
1.414429e+00 
1.414419e+00 
1.361432e-01 
1.222621e+00 
1.414452e+00 
7.536336e-10 
1.714918e-01 
8.948624e-02 
-2.306702e-10 
1.100361e-09 
7.040381e-10 
4.624716e-10 
-4.840490e-10 
-6.377304e-10 
-9.348742e-10 
-3.554056e-10 
5.536670e-10 
1.414424e+00 
9.493310e-11 
1.414423e+00 
1.414451e+00 
2.642027e-10 
-5.700809e-11 
1.414424e+00 
-2.920182e-10 
4.570984e-10 
9.967705e-01 
3.757149e-02 
1.414490e+00 
4.229089e-10 
-6.228064e-10 
7.777923e-01 
1.414497e+00 
1.414434e+00 
2.102403e-05 
-2.909498e-10 
3.017403e-10 
1.023855e-08 
4.681241e-07 
-5.101855e-06 
2.291786e-06 
-5.503350e-06 
-7.899668e-06 
2.292414e-07 
1.218491e-06 
-4.767938e-06 
-5.206744e-07 
-4.767191e-06 
1.291888e-05 
1.405550e-01 
-3.372656e-06 
-1.780931e-07 
1.414353e+00 
1.414424e+00 
4.766479e-06 
3.006781e-06 
7.592107e-01 
1.414426e+00 
-3.273398e-06 
7.239560e-06 
1.414428e+00 
1.414303e+00 
-4.783811e-06 
-4.697413e-06 
-2.877636e-06 
9.636504e-07 
-4.244126e-06 
-5.707625e-05 
-3.457123e-05 
6.481090e-01 
1.246047e+00 
1.414428e+00 
1.414432e+00 
1.414423e+00 
1.296330e+00 
-5.820505e-05 
1.414423e+00 
1.414426e+00 
1.414432e+00 
1.414357e+00 
1.414431e+00 
-3.946170e-06 
2.899861e-06 
1.906897e-06 
2.592077e-06 
3.316726e-06 
8.363527e-06 
6.340746e-06 
-3.096338e-06 
7.225271e-06 
-3.369417e-06 
3.146826e-06 
3.581174e-07 
3.513356e-06 
1.607311e-06 
-4.900986e-06 
4.145204e-06 
-1.951543e-06 
4.658234e-06 
6.593061e-07 
7.856519e-06 
-1.279136e-06 
-7.113906e-06 
-6.070844e-06 
-4.041124e-06 
-2.013355e-02 
2.956266e-06 
-5.947697e-06 
5.883244e-06 
9.806457e-07 
-4.583269e-06 
-2.161001e-06 
6.102946e-09 
-5.180284e-06 
-8.428773e-02 
-6.223711e-06 
8.268583e-06 
7.775597e-07 
-3.929782e-06 
-5.590059e-07 
-2.126957e-06 
1.049715e-05 
4.558267e-06 
-7.803440e-06 
-6.632734e-02 
-1.452269e-05 
-6.299083e-06 
2.017703e-06 
-3.502293e-02 
-3.273379e-06 
-1.275709e-05 
-8.282937e-06 
-1.505565e-05 
7.926889e-06 
6.702326e-06 
-4.904950e-06 
3.259108e-06 
1.414426e+00 
1.414431e+00 
1.414438e+00 
1.414427e+00 
1.414432e+00 
1.414487e+00 
1.379718e+00 
1.414426e+00 
1.414423e+00 
1.414431e+00 
1.414432e+00 
1.414425e+00 
1.414429e+00 
1.282230e-09 
3.821646e-01 
-2.113553e-10 
1.253695e+00 
1.284683e+00 
1.640676e-09 
1.414495e+00 
2.155911e-10 
2.060762e-10 
-5.182775e-10 
1.414426e+00 
1.414425e+00 
1.698076e-10 
-7.686123e-06 
8.642677e-02 
-1.242141e-04 
-4.326544e-06 
-2.114732e-07 
-2.399309e-05 
-6.918803e-06 
-1.198037e-05 
-6.615714e-06 
3.835943e-06 
-5.016912e-06 
-7.706230e-06 
1.414416e+00 
-9.343708e-10 
2.658384e-10 
2.680153e-01 
6.496901e-10 
1.473656e-10 
4.179736e-10 
-1.796954e-10 
2.500257e-10 
1.130343e-05 
3.486523e-10 
-1.430655e-10 
-5.366282e-10 
-2.840738e-10 
2.691259e-10 
9.774390e-12 
2.053298e-10 
2.754478e-10 
2.270688e-10 
-1.616055e-10 
-1.933082e-10 
4.560357e-11 
-6.641834e-11 
2.571152e-11 
-5.955718e-11 
2.267039e-10 
8.703602e-11 
2.481795e-11 
-6.921146e-11 
3.359077e-10 
-4.774908e-10 
4.054841e-10 
-3.010374e-10 
-3.544561e-10 
-5.850282e-10 
-4.131467e-10 
1.535318e-11 
4.950256e-10 
-1.780363e-10 
-1.105906e-10 
-8.390496e-02 
4.952838e-10 
2.244678e-10 
1.794844e-10 
6.227642e-10 
6.424922e-10 
-8.402965e-04 
1.431683e-10 
4.534097e-10 
-4.745887e-11 
-3.413685e-10 
-7.022170e-10 
-4.458375e-10 
-7.467249e-02 
-7.365908e-10 
1.110055e-09 
5.980769e-10 
-3.580951e-10 
2.294449e-10 
-2.065908e-02 
-4.130481e-10 
8.173132e-11 
1.034668e-11 
1.425721e-10 
2.574928e-11 
2.956969e-10 
-2.533928e-10 
-8.294810e-10 
-8.361395e-10 
-9.080477e-11 
-5.638707e-10 
-9.493446e-11 
3.285852e-10 
-8.967262e-10 
2.579235e-10 
1.505140e-10 
4.484775e-10 
3.116131e-10 
-4.824219e-02 
3.989370e-11 
-4.533146e-10 
-2.539313e-10 
3.327514e-10 
4.940568e-11 
-7.883965e-10 
-3.886901e-10 
-2.909678e-10 
4.239129e-10 
-4.185018e-10 
-1.260665e-10 
3.813094e-11 
5.629339e-10 
1.969531e-10 
</DataArray>
<DataArray type='Float32' NumberOfComponents='3' Name='velocity (cm/year)' Format='ascii'> 
0.000000e+00 0.000000e+00 0.000000e+00 
0.000000e+00 0.000000e+00 0.000000e+00 
-2.000000e+00 0.000000e+00 0.000000e+00 
-2.000000e+00 0.000000e+00 0.000000e+00 
-2.000000e+00 0.000000e+00 0.000000e+00 
-1.414427e+00 0.000000e+00 1.414427e+00 
-2.000000e+00 0.000000e+00 0.000000e+00 
-2.000000e+00 0.000000e+00 0.000000e+00 
-2.000000e+00 0.000000e+00 0.000000e+00 
-2.000000e+00 0.000000e+00 0.000000e+00 
-2.000000e+00 0.000000e+00 0.000000e+00 
-2.000000e+00 0.000000e+00 0.000000e+00 
-2.000000e+00 0.000000e+00 0.000000e+00 
-2.000000e+00 0.000000e+00 0.000000e+00 
-2.000000e+00 0.000000e+00 0.000000e+00 
-2.000000e+00 0.000000e+00 0.000000e+00 
-2.000000e+00 0.000000e+00 0.000000e+00 
-2.000000e+00 0.000000e+00 0.000000e+00 
-2.000000e+00 0.000000e+00 0.000000e+00 
-2.000000e+00 0.000000e+00 0.000000e+00 
-2.000000e+00 0.000000e+00 0.000000e+00 
-2.000000e+00 0.000000e+00 0.000000e+00 
-2.000000e+00 0.000000e+00 0.000000e+00 
-2.000000e+00 0.000000e+00 0.000000e+00 
-2.000000e+00 0.000000e+00 0.000000e+00 
-2.000000e+00 0.000000e+00 0.000000e+00 
-2.000000e+00 0.000000e+00 0.000000e+00 
-2.000000e+00 0.000000e+00 0.000000e+00 
-2.000000e+00 0.000000e+00 0.000000e+00 
-2.000000e+00 0.000000e+00 0.000000e+00 
-2.000000e+00 0.000000e+00 0.000000e+00 
-2.000000e+00 0.000000e+00 0.000000e+00 
0.000000e+00 0.000000e+00 0.000000e+00 
-2.000000e+00 0.000000e+00 0.000000e+00 
-2.000000e+00 0.000000e+00 0.000000e+00 
-2.000000e+00 0.000000e+00 0.000000e+00 
-1.414427e+00 0.000000e+00 1.414427e+00 
-1.414427e+00 0.000000e+00 1.414427e+00 
-1.414427e+00 0.000000e+00 1.414427e+00 
-1.414427e+00 0.000000e+00 1.414427e+00 
-1.414427e+00 0.000000e+00 1.414427e+00 
-2.000000e+00 0.000000e+00 0.000000e+00 
-1.414427e+00 0.000000e+00 1.414427e+00 
-2.000000e+00 0.000000e+00 0.000000e+00 
-1.414427e+00 0.000000e+00 1.414427e+00 
-1.414427e+00 0.000000e+00 1.414427e+00 
-1.414427e+00 0.000000e+00 1.414427e+00 
-2.000000e+00 0.000000e+00 0.000000e+00 
-1.414427e+00 0.000000e+00 1.414427e+00 
-1.414427e+00 0.000000e+00 1.414427e+00 
-2.000000e+00 0.000000e+00 0.000000e+00 
-1.414427e+00 0.000000e+00 1.414427e+00 
-1.414427e+00 0.000000e+00 1.414427e+00 
-1.414427e+00 0.000000e+00 1.414427e+00 
-1.414427e+00 0.000000e+00 1.414427e+00 
-1.414427e+00 0.000000e+00 1.414427e+00 
-1.414427e+00 0.000000e+00 1.414427e+00 
-1.414427e+00 0.000000e+00 1.414427e+00 
-1.414427e+00 0.000000e+00 1.414427e+00 
-1.414427e+00 0.000000e+00 1.414427e+00 
-1.414427e+00 0.000000e+00 1.414427e+00 
-1.414427e+00 0.000000e+00 1.414427e+00 
-1.414427e+00 0.000000e+00 1.414427e+00 
-1.414427e+00 0.000000e+00 1.414427e+00 
-2.000000e+00 0.000000e+00 0.000000e+00 
-1.414427e+00 0.000000e+00 1.414427e+00 
-1.414427e+00 0.000000e+00 1.414427e+00 
-1.414427e+00 0.000000e+00 1.414427e+00 
-1.414427e+00 0.000000e+00 1.414427e+00 
-1.414427e+00 0.000000e+00 1.414427e+00 
0.000000e+00 0.000000e+00 0.000000e+00 
-1.414427e+00 0.000000e+00 1.414427e+00 
-1.414427e+00 0.000000e+00 1.414427e+00 
-1.414427e+00 0.000000e+00 1.414427e+00 
-1.414427e+00 0.000000e+00 1.414427e+00 
-1.414427e+00 0.000000e+00 1.414427e+00 
-1.414427e+00 0.000000e+00 1.414427e+00 
-1.414427e+00 0.000000e+00 1.414427e+00 
-1.414427e+00 0.000000e+00 1.414427e+00 
-1.414427e+00 0.000000e+00 1.414427e+00 
0.000000e+00 0.000000e+00 0.000000e+00 
0.000000e+00 0.000000e+00 0.000000e+00 
-1.414427e+00 0.000000e+00 1.414427e+00 
-1.414427e+00 0.000000e+00 1.414427e+00 
-1.414427e+00 0.000000e+00 1.414427e+00 
-1.414427e+00 0.000000e+00 1.414427e+00 
-1.414427e+00 0.000000e+00 1.414427e+00 
0.000000e+00 0.000000e+00 0.000000e+00 
-1.414427e+00 0.000000e+00 1.414427e+00 
-1.414427e+00 0.000000e+00 1.414427e+00 
0.000000e+00 0.000000e+00 0.000000e+00 
0.000000e+00 0.000000e+00 0.000000e+00 
0.000000e+00 0.000000e+00 0.000000e+00 
0.000000e+00 0.000000e+00 0.000000e+00 
0.000000e+00 0.000000e+00 0.000000e+00 
0.000000e+00 0.000000e+00 0.000000e+00 
0.000000e+00 0.000000e+00 0.000000e+00 
0.000000e+00 0.000000e+00 0.000000e+00 
0.000000e+00 0.000000e+00 0.000000e+00 
0.000000e+00 0.000000e+00 0.000000e+00 
0.000000e+00 0.000000e+00 0.000000e+00 
0.000000e+00 0.000000e+00 0.000000e+00 
-1.414427e+00 0.000000e+00 1.414427e+00 
0.000000e+00 0.000000e+00 0.000000e+00 
-1.414427e+00 0.000000e+00 1.414427e+00 
-1.414427e+00 0.000000e+00 1.414427e+00 
0.000000e+00 0.000000e+00 0.000000e+00 
0.000000e+00 0.000000e+00 0.000000e+00 
-1.414427e+00 0.000000e+00 1.414427e+00 
0.000000e+00 0.000000e+00 0.000000e+00 
0.000000e+00 0.000000e+00 0.000000e+00 
-1.414427e+00 0.000000e+00 1.414427e+00 
0.000000e+00 0.000000e+00 0.000000e+00 
-1.414427e+00 0.000000e+00 1.414427e+00 
0.000000e+00 0.000000e+00 0.000000e+00 
0.000000e+00 0.000000e+00 0.000000e+00 
0.000000e+00 0.000000e+00 0.000000e+00 
-1.414427e+00 0.000000e+00 1.414427e+00 
-1.414427e+00 0.000000e+00 1.414427e+00 
0.000000e+00 0.000000e+00 0.000000e+00 
0.000000e+00 0.000000e+00 0.000000e+00 
0.000000e+00 0.000000e+00 0.000000e+00 
0.000000e+00 0.000000e+00 0.000000e+00 
-2.000000e+00 0.000000e+00 0.000000e+00 
-2.000000e+00 0.000000e+00 0.000000e+00 
-2.000000e+00 0.000000e+00 0.000000e+00 
-2.000000e+00 0.000000e+00 0.000000e+00 
-2.000000e+00 0.000000e+00 0.000000e+00 
-2.000000e+00 0.000000e+00 0.000000e+00 
-2.000000e+00 0.000000e+00 0.000000e+00 