<VTKFile type='UnstructuredGrid' version='0.1' byte_order='BigEndian'> 
<UnstructuredGrid> 
<Piece NumberOfPoints='  8350 ' NumberOfCells='  8016 '> 
<Points> 
<DataArray type='Float32' NumberOfComponents='3' Format='ascii'> 
  1.220000   0.000000   0.000000 
  1.219784   0.022949   0.000000 
  1.219137   0.045890   0.000000 
  1.218058   0.068815   0.000000 
  1.216548   0.091716   0.000000 
  1.214607   0.114584   0.000000 
  1.212237   0.137411   0.000000 
  1.209438   0.160190   0.000000 
  1.206210   0.182912   0.000000 
  1.202556   0.205570   0.000000 
  1.198476   0.228154   0.000000 
  1.193973   0.250658   0.000000 
  1.189046   0.273074   0.000000 
  1.183699   0.295392   0.000000 
  1.177933   0.317606   0.000000 
  1.171750   0.339708   0.000000 
  1.165153   0.361689   0.000000 
  1.158143   0.383543   0.000000 
  1.150723   0.405261   0.000000 
  1.142896   0.426835   0.000000 
  1.134665   0.448258   0.000000 
  1.126032   0.469523   0.000000 
  1.117001   0.490621   0.000000 
  1.107574   0.511546   0.000000 
  1.097755   0.532290   0.000000 
  1.087548   0.552846   0.000000 
  1.076957   0.573206   0.000000 
  1.065984   0.593363   0.000000 
  1.054633   0.613310   0.000000 
  1.042910   0.633040   0.000000 
  1.030817   0.652546   0.000000 
  1.018360   0.671821   0.000000 
  1.005542   0.690858   0.000000 
  0.992369   0.709651   0.000000 
  0.978844   0.728193   0.000000 
  0.964973   0.746477   0.000000 
  0.950760   0.764496   0.000000 
  0.936211   0.782246   0.000000 
  0.921331   0.799718   0.000000 
  0.906125   0.816908   0.000000 
  0.890598   0.833808   0.000000 
  0.874755   0.850413   0.000000 
  0.858604   0.866718   0.000000 
  0.842148   0.882716   0.000000 
  0.825394   0.898401   0.000000 
  0.808349   0.913768   0.000000 
  0.791017   0.928812   0.000000 
  0.773405   0.943528   0.000000 
  0.755520   0.957909   0.000000 
  0.737367   0.971951   0.000000 
  0.718953   0.985650   0.000000 
  0.700285   0.999000   0.000000 
  0.681369   1.011996   0.000000 
  0.662212   1.024634   0.000000 
  0.642821   1.036909   0.000000 
  0.623202   1.048818   0.000000 
  0.603363   1.060355   0.000000 
  0.583310   1.071517   0.000000 
  0.563051   1.082300   0.000000 
  0.542592   1.092700   0.000000 
  0.521941   1.102714   0.000000 
  0.501106   1.112337   0.000000 
  0.480093   1.121566   0.000000 
  0.458911   1.130399   0.000000 
  0.437566   1.138831   0.000000 
  0.416066   1.146860   0.000000 
  0.394419   1.154484   0.000000 
  0.372633   1.161699   0.000000 
  0.350714   1.168503   0.000000 
  0.328672   1.174894   0.000000 
  0.306513   1.180868   0.000000 
  0.284245   1.186425   0.000000 
  0.261877   1.191562   0.000000 
  0.239417   1.196277   0.000000 
  0.216872   1.200569   0.000000 
  0.194249   1.204436   0.000000 
  0.171559   1.207877   0.000000 
  0.148807   1.210891   0.000000 
  0.126003   1.213476   0.000000 
  0.103154   1.215631   0.000000 
  0.080269   1.217357   0.000000 
  0.057355   1.218651   0.000000 
  0.034421   1.219514   0.000000 
  0.011475   1.219946   0.000000 
 -0.011475   1.219946   0.000000 
 -0.034421   1.219514   0.000000 
 -0.057355   1.218651   0.000000 
 -0.080269   1.217357   0.000000 
 -0.103154   1.215631   0.000000 
 -0.126003   1.213476   0.000000 
 -0.148807   1.210891   0.000000 
 -0.171559   1.207877   0.000000 
 -0.194249   1.204436   0.000000 
 -0.216872   1.200569   0.000000 
 -0.239417   1.196277   0.000000 
 -0.261877   1.191562   0.000000 
 -0.284245   1.186425   0.000000 
 -0.306513   1.180868   0.000000 
 -0.328672   1.174894   0.000000 
 -0.350714   1.168503   0.000000 
 -0.372633   1.161699   0.000000 
 -0.394419   1.154484   0.000000 
 -0.416066   1.146860   0.000000 
 -0.437566   1.138831   0.000000 
 -0.458911   1.130399   0.000000 
 -0.480093   1.121566   0.000000 
 -0.501106   1.112337   0.000000 
 -0.521941   1.102714   0.000000 
 -0.542592   1.092700   0.000000 
 -0.563051   1.082300   0.000000 
 -0.583310   1.071517   0.000000 
 -0.603363   1.060355   0.000000 
 -0.623202   1.048818   0.000000 
 -0.642821   1.036909   0.000000 
 -0.662212   1.024634   0.000000 
 -0.681369   1.011996   0.000000 
 -0.700285   0.999000   0.000000 
 -0.718953   0.985650   0.000000 
 -0.737367   0.971951   0.000000 
 -0.755520   0.957909   0.000000 
 -0.773405   0.943528   0.000000 
 -0.791017   0.928812   0.000000 
 -0.808349   0.913768   0.000000 
 -0.825394   0.898401   0.000000 
 -0.842148   0.882716   0.000000 
 -0.858604   0.866718   0.000000 
 -0.874755   0.850413   0.000000 
 -0.890598   0.833808   0.000000 
 -0.906125   0.816908   0.000000 
 -0.921331   0.799718   0.000000 
 -0.936211   0.782246   0.000000 
 -0.950760   0.764496   0.000000 
 -0.964973   0.746477   0.000000 
 -0.978844   0.728193   0.000000 
 -0.992369   0.709651   0.000000 
 -1.005542   0.690858   0.000000 
 -1.018360   0.671821   0.000000 
 -1.030817   0.652546   0.000000 
 -1.042910   0.633040   0.000000 
 -1.054633   0.613310   0.000000 
 -1.065984   0.593363   0.000000 
 -1.076957   0.573206   0.000000 
 -1.087548   0.552846   0.000000 
 -1.097755   0.532290   0.000000 
 -1.107574   0.511546   0.000000 
 -1.117001   0.490621   0.000000 
 -1.126032   0.469523   0.000000 
 -1.134665   0.448258   0.000000 
 -1.142896   0.426835   0.000000 
 -1.150723   0.405261   0.000000 
 -1.158143   0.383543   0.000000 
 -1.165153   0.361689   0.000000 
 -1.171750   0.339708   0.000000 
 -1.177933   0.317606   0.000000 
 -1.183699   0.295392   0.000000 
 -1.189046   0.273074   0.000000 
 -1.193973   0.250658   0.000000 
 -1.198476   0.228154   0.000000 
 -1.202556   0.205570   0.000000 
 -1.206210   0.182912   0.000000 
 -1.209438   0.160190   0.000000 
 -1.212237   0.137411   0.000000 
 -1.214607   0.114584   0.000000 
 -1.216548   0.091716   0.000000 
 -1.218058   0.068815   0.000000 
 -1.219137   0.045890   0.000000 
 -1.219784   0.022949   0.000000 
 -1.220000   0.000000   0.000000 
 -1.219784  -0.022949   0.000000 
 -1.219137  -0.045890   0.000000 
 -1.218058  -0.068815   0.000000 
 -1.216548  -0.091716   0.000000 
 -1.214607  -0.114584   0.000000 
 -1.212237  -0.137411   0.000000 
 -1.209438  -0.160190   0.000000 
 -1.206210  -0.182912   0.000000 
 -1.202556  -0.205570   0.000000 
 -1.198476  -0.228154   0.000000 
 -1.193973  -0.250658   0.000000 
 -1.189046  -0.273074   0.000000 
 -1.183699  -0.295392   0.000000 
 -1.177933  -0.317606   0.000000 
 -1.171750  -0.339708   0.000000 
 -1.165153  -0.361689   0.000000 
 -1.158143  -0.383543   0.000000 
 -1.150723  -0.405261   0.000000 
 -1.142896  -0.426835   0.000000 
 -1.134665  -0.448258   0.000000 
 -1.126032  -0.469523   0.000000 
 -1.117001  -0.490621   0.000000 
 -1.107574  -0.511546   0.000000 
 -1.097755  -0.532290   0.000000 
 -1.087548  -0.552846   0.000000 
 -1.076957  -0.573206   0.000000 
 -1.065984  -0.593363   0.000000 
 -1.054633  -0.613310   0.000000 
 -1.042910  -0.633040   0.000000 
 -1.030817  -0.652546   0.000000 
 -1.018360  -0.671821   0.000000 
 -1.005542  -0.690858   0.000000 
 -0.992369  -0.709651   0.000000 
 -0.978844  -0.728193   0.000000 
 -0.964973  -0.746477   0.000000 
 -0.950760  -0.764496   0.000000 
 -0.936211  -0.782246   0.000000 
 -0.921331  -0.799718   0.000000 
 -0.906125  -0.816908   0.000000 
 -0.890598  -0.833808   0.000000 
 -0.874755  -0.850413   0.000000 
 -0.858604  -0.866718   0.000000 
 -0.842148  -0.882716   0.000000 
 -0.825394  -0.898401   0.000000 
 -0.808349  -0.913768   0.000000 
 -0.791017  -0.928812   0.000000 
 -0.773405  -0.943528   0.000000 
 -0.755520  -0.957909   0.000000 
 -0.737367  -0.971951   0.000000 
 -0.718953  -0.985650   0.000000 
 -0.700285  -0.999000   0.000000 
 -0.681369  -1.011996   0.000000 
 -0.662212  -1.024634   0.000000 
 -0.642821  -1.036909   0.000000 
 -0.623202  -1.048818   0.000000 
 -0.603363  -1.060355   0.000000 
 -0.583310  -1.071517   0.000000 
 -0.563051  -1.082300   0.000000 
 -0.542592  -1.092700   0.000000 
 -0.521941  -1.102714   0.000000 
 -0.501106  -1.112337   0.000000 
 -0.480093  -1.121566   0.000000 
 -0.458911  -1.130399   0.000000 
 -0.437566  -1.138831   0.000000 
 -0.416066  -1.146860   0.000000 
 -0.394419  -1.154484   0.000000 
 -0.372633  -1.161699   0.000000 
 -0.350714  -1.168503   0.000000 
 -0.328672  -1.174894   0.000000 
 -0.306513  -1.180868   0.000000 
 -0.284245  -1.186425   0.000000 
 -0.261877  -1.191562   0.000000 
 -0.239417  -1.196277   0.000000 
 -0.216872  -1.200569   0.000000 
 -0.194249  -1.204436   0.000000 
 -0.171559  -1.207877   0.000000 
 -0.148807  -1.210891   0.000000 
 -0.126003  -1.213476   0.000000 
 -0.103154  -1.215631   0.000000 
 -0.080269  -1.217357   0.000000 
 -0.057355  -1.218651   0.000000 
 -0.034421  -1.219514   0.000000 
 -0.011475  -1.219946   0.000000 
  0.011475  -1.219946   0.000000 
  0.034421  -1.219514   0.000000 
  0.057355  -1.218651   0.000000 
  0.080269  -1.217357   0.000000 
  0.103154  -1.215631   0.000000 
  0.126003  -1.213476   0.000000 
  0.148807  -1.210891   0.000000 
  0.171559  -1.207877   0.000000 
  0.194249  -1.204436   0.000000 
  0.216872  -1.200569   0.000000 
  0.239417  -1.196277   0.000000 
  0.261877  -1.191562   0.000000 
  0.284245  -1.186425   0.000000 
  0.306513  -1.180868   0.000000 
  0.328672  -1.174894   0.000000 
  0.350714  -1.168503   0.000000 
  0.372633  -1.161699   0.000000 
  0.394419  -1.154484   0.000000 
  0.416066  -1.146860   0.000000 
  0.437566  -1.138831   0.000000 
  0.458911  -1.130399   0.000000 
  0.480093  -1.121566   0.000000 
  0.501106  -1.112337   0.000000 
  0.521941  -1.102714   0.000000 
  0.542592  -1.092700   0.000000 
  0.563051  -1.082300   0.000000 
  0.583310  -1.071517   0.000000 
  0.603363  -1.060355   0.000000 
  0.623202  -1.048818   0.000000 
  0.642821  -1.036909   0.000000 
  0.662212  -1.024634   0.000000 
  0.681369  -1.011996   0.000000 
  0.700285  -0.999000   0.000000 
  0.718953  -0.985650   0.000000 
  0.737367  -0.971951   0.000000 
  0.755520  -0.957909   0.000000 
[...]
<CellData Scalars='scalars'>
<DataArray type='Float32' Name='p' Format='ascii'> 
-21067.674879
-21067.689477
-21067.668149
-21067.605644
-21067.510593
-21067.397836
-21067.279931
-21067.163652
-21067.050523
-21066.934630
-21066.812940
-21066.677618
-21066.523345
-21066.345607
-21066.141153
-21065.912483
-21065.666306
-21065.415217
-21065.175110
-21064.960242
-21064.782572
-21064.648968
-21064.562225
-21064.522264
-21064.529085
-21064.582677
-21064.683321
-21064.830173
-21065.019655
-21065.243652
-21065.489068
-21065.740441
-21065.982548
-21066.204386
-21066.402360
-21066.571890
-21066.718773
-21066.848967
-21066.967884
-21067.082434
-21067.196758
-21067.313651
-21067.431544
-21067.542525
-21067.632053
-21067.685469
-21067.696434
-21067.687680
-21067.692796
-21067.695059
-21067.658327
-21067.581747
-21067.477792
-21067.361604
-21067.243460
-21067.128273
-21067.014495
-21066.898239
-21066.773775
-21066.634076
-21066.474005
-21066.288650
-21066.076829
-21065.842020
-21065.592864
-21065.343321
-21065.108751
-21064.903513
-21064.737757
-21064.617897
-21064.544615
-21064.518080
-21064.538169
-21064.604994
-21064.719044
-21064.878479
-21065.078727
-21065.309966
-21065.558428
-21065.808642
-21066.045974
-21066.261240
-21066.450012
-21066.613249
-21066.755454
-21066.881820
-21066.998698
-21067.112698
-21067.227260
-21067.345216
-21067.462376
-21067.569139
-21067.649459
-21067.691705
-21067.693206
-21067.685884
-21067.694570
-21067.688476
-21067.639773
-21067.554576
-21067.444868
-21067.326770
-21067.209673
-21067.094895
-21066.980753
-21066.863269
-21066.735326
-21066.590193
-21066.423483
-21066.230465
-21066.011664
-21065.771807
-21065.520650
-21065.273768
-21065.046371
-21064.851717
-21064.698467
-21064.591363
-21064.531194
-21064.517910
-21064.551339
-21064.631761
-21064.759039
-21064.930741
-21065.141095
-21065.379087
-21065.629539
-21065.877513
-21066.109548
-21066.317186
-21066.498471
-21066.655609
-21066.792601
-21066.915497
-21067.031184
-21067.145371
-21067.260650
-21067.378520
-21067.493844
-21067.594616
-21067.665421
-21067.694706
-21067.689477
-21067.686839
-21067.695207
-21067.677835
-21067.617695
-21067.523903
-21067.411717
-21067.292869
-21067.175999
-21067.062062
-21066.947716
-21066.827344
-21066.695376
-21066.544548
-21066.370391
-21066.169779
-21065.944395
-21065.700219
-21065.448993
-21065.205897
-21064.986424
-21064.802706
-21064.662599
-21064.568887
-21064.522207
-21064.522184
-21064.568955
-21064.662474
-21064.802525
-21064.986515
-21065.205874
-21065.448811
-21065.700292
-21065.944719
-21066.170484
-21066.370846
-21066.544832
-21066.695405
-21066.827674
-21066.947852
-21067.062698
-21067.177130
-21067.293619
-21067.411785
-21067.524199
-21067.618081
-21067.678176
-21067.695570
-21067.687021
-21067.689386
-21067.694979
-21067.665853
-21067.594543
-21067.493958
-21067.378634
-21067.260059
-21067.144007
-21067.030866
-21066.915087
-21066.791987
-21066.655063
-21066.497948
-21066.316708
-21066.108729
-21065.876672
-21065.628971
-21065.378724
-21065.140970
-21064.930615
-21064.759142
-21064.631909
-21064.551706
-21064.518307
-21064.531495
-21064.591522
-21064.698399
-21064.851308
-21065.045735
-21065.273222
-21065.520241
-21065.771216
-21066.011209
-21066.230124
-21066.423028
-21066.589716
-21066.734575
-21066.862882
-21066.981049
-21067.095076
-21067.209354
-21067.327066
-21067.444618
-21067.553621
-21067.639818
-21067.687931
-21067.694706
-21067.686612
-21067.693115
-21067.691841
-21067.650846
-21067.569742
-21067.463229
-21067.346461
-21067.228494
-21067.113067
-21066.999267
-21066.882104
-21066.756088
-21066.614249
-21066.450824
-21066.261843
-21066.046895
-21065.809437
-21065.559349
-21065.310898
-21065.079000
-21064.878592
-21064.719067
-21064.605016
-21064.538055
-21064.517955
-21064.544489
-21064.617954
-21064.738235
-21064.903723
-21065.108837
-21065.343611
-21065.593347
-21065.842719
-21066.077852
-21066.290844
-21066.475142
-21066.635259
-21066.774900
-21066.899467
-21067.015336
-21067.128966
-21067.244290
-21067.361922
-21067.478326
-21067.582566
-21067.659293
-21067.695332
-21067.693626
-21067.688294
-21067.697230
-21067.686214
-21067.632383
-21067.542707
-21067.432044
-21067.314219
-21067.196849
-21067.082366
-21066.968065
-21066.848603
-21066.720706
-21066.577892
-21066.401905
-21066.205954
-21065.984060
-21065.742135
-21065.490546
-21065.245528
-21065.022099
-21064.832441
-21064.685714
-21064.585030
-21064.531370
-21064.524367
-21064.564089
-21064.650468
-21064.783596
-21064.960811
-21065.175406
-21065.415444
-21065.665942
-21065.912188
-21066.140698
-21066.345039
-21066.522970
-21066.676914
-21066.811837
-21066.933107
-21067.048522
-21067.162504
-21067.278396
-21067.397302
-21067.512347
-21067.612442
-21067.680973
-21067.708030
-21067.711714
-62729.211004
-62729.269075
-62729.336355
-62729.351157
-62729.335890
-62729.301061
-62729.258559
-62729.206417
-62729.149926
-62729.086972
-62729.022250
-62728.954458
-62728.882835
-62728.801743
-62728.706928
-62728.594082
-62728.460330
-62728.309183
-62728.147202
-62727.984971
-62727.835916
-62727.713089
-62727.627005
-62727.585794
-62727.592962
-62727.647946
-62727.745794
-62727.877913
-62728.032197
-62728.195951
-62728.355869
-62728.502320
-62728.630417
-62728.738078
-62728.831062
-62728.904288
-62728.975126
-62729.041633
-62729.106264
-62729.167882
-62729.224010
-62729.273077
-62729.314197
-62729.345274
-62729.354909
-62729.325634
-62729.253546
-62729.188585
-62729.222304
-62729.299839
-62729.348508
-62729.352794
-62729.328420
-62729.290130
-62729.244382
-62729.191404
-62729.131082
-62729.067895
-62729.001638
-62728.933608
-62728.859302
-62728.775970
-62728.675925
-62728.556304
-62728.417583
-62728.261935
-62728.098453
-62727.939036
-62727.795506
-62727.682410
-62727.608497
-62727.580996
-62727.601960
-62727.669899
-62727.778425
-62727.918225
-62728.076512
-62728.240482
-62728.397154
-62728.538887
-62728.660998
-62728.763226
-62728.848815
-62728.923689
-62728.992845
-62729.058845
-62729.122664
-62729.183293
-62729.236924
-62729.283553
-62729.322417
-62729.348895
-62729.350623
-62729.306865
-62729.230513
-62729.185447
-62729.242200
-62729.317256
-62729.352953
-62729.347275
-62729.317659
-62729.276056
-62729.228443
-62729.173726
-62729.112199
-62729.048045
-62728.982437
-62728.912781
-62728.836542
-62728.748401
-62728.643479
-62728.518731
-62728.374303
-62728.215732
-62728.052046
-62727.895659
-62727.759604
-62727.656416
-62727.595440
-62727.581454
-62727.616165
-62727.696428
-62727.815049
-62727.961114
-62728.122367
-62728.285565
-62728.438900
-62728.575153
-62728.691489
-62728.788043
-62728.870864
-62728.942771
-62729.010961
-62729.076490
-62729.139518
-62729.198294
-62729.249930
-62729.294586
-62729.331466
-62729.352533
-62729.342949
-62729.286037
-62729.209003
-62729.193496
-62729.263709
-62729.331370
-62729.353994
-62729.338390
-62729.306387
-62729.262982
-62729.213619
-62729.155775
-62729.094088
-62729.029207
-62728.962439
-62728.890919
-62728.811679
-62728.719274
-62728.609407
-62728.478360
-62728.329578
-62728.168234
-62728.005298
-62727.853589
-62727.725702
-62727.633849
-62727.585549
-62727.585600
-62727.633707
-62727.725668
-62727.853185
-62728.005423
-62728.168439
-62728.329567
-62728.478861
-62728.609555
-62728.720133
-62728.812418
-62728.891839
-62728.962286
-62729.029969
-62729.094537
-62729.156554
-62729.213994
-62729.263908
-62729.306217
-62729.339345
-62729.353522
-62729.331773
-62729.263777
-62729.193132
-62729.209412
-62729.285719
-62729.342972
-62729.352365
-62729.331199
-62729.295246
-62729.250601
-62729.198464
-62729.139404
-62729.076444
-62729.011188
-62728.943328
-62728.870034
-62728.788521
-62728.690386
-62728.574278
-62728.438388
-62728.284786
-62728.121924
-62727.960801
-62727.814512
-62727.696152
-62727.615807
-62727.581150
-62727.594877
-62727.656007
-62727.759143
-62727.895033
-62728.050978
-62728.215050
-62728.373643
-62728.518151
-62728.643320
-62728.748480
-62728.835519
-62728.913235
-62728.981572
-62729.048227
-62729.112437
-62729.173874
-62729.228353
-62729.277488
-62729.318074
-62729.346268
-62729.352862
-62729.316505
-62729.242291
-62729.186129
-62729.230376
-62729.306569
-62729.350918
-62729.350270
-62729.323514
-62729.284866
-62729.238073
-62729.183458
-62729.123226
-62729.059096
-62728.993385
-62728.924468
-62728.850025
-62728.763970
-62728.661851
-62728.539899
-62728.397950
-62728.241096
-62728.077251
-62727.919158
-62727.778879
-62727.670127
-62727.602597
-62727.581371
-62727.608986
-62727.683093
-62727.796427
-62727.939439
-62728.098840
-62728.262645
-62728.418078
-62728.557413
-62728.678145
-62728.776328
-62728.860087
-62728.934819
-62729.003065
-62729.068918
-62729.132196
-62729.192007
-62729.245371
-62729.291142
-62729.329125
-62729.353783
-62729.350488
-62729.300498
-62729.222827
-62729.189358
-62729.252909
-62729.325703
-62729.355318
-62729.345689
-62729.314516
-62729.273156
-62729.224453
-62729.168019
-62729.106617
-62729.041622
-62728.978958
-62728.921091
-62728.829596
-62728.740284
-62728.632383
-62728.504491
-62728.357645
-62728.197582
-62728.033930
-62727.879090
-62727.747351
-62727.649239
-62727.594013
-62727.586470
-62727.627665
-62727.713146
-62727.835939
-62727.985289
-62728.147100
-62728.309342
-62728.460489
-62728.594366
-62728.707553
-62728.802720
-62728.883290
-62728.955595
-62729.022835
-62729.088535
-62729.151000
-62729.210060
-62729.261111
-62729.305546
-62729.340732
-62729.360843
-62729.345632
-62729.287811
-62729.199590
-104391.086870
-104391.180594
-104391.257423
-104391.297100
-104391.301062
-104391.306104
-104391.312809
-104391.326006
-104391.337425
-104391.348691
-104391.354421
-104391.357195
-104391.349618
-104391.333571
-104391.299237
-104391.250943
-104391.186096
-104391.111006
-104391.028981
-104390.945620
-104390.864601
-104390.794206
-104390.742214
-104390.717061
-104390.721208
-104390.755038
-104390.814296
-104390.887989
-104390.970279
-104391.053691
-104391.133962
-104391.206281
-104391.267033
-104391.311430
-104391.339826
-104391.353580
-104391.357655
-104391.353648
-104391.346031
-104391.334798
-104391.322441
-104391.310788
-104391.304518
-104391.301981
-104391.290671
-104391.241689
-104391.146670
-104391.082732
-104391.111131
-104391.205832
-104391.277057
-104391.299746
-104391.303364
-104391.307207
-104391.317359
-104391.329751
-104391.341733
-104391.350658
-104391.355967
-104391.355671
-104391.346429
-104391.324646
-104391.286931
-104391.232830
-104391.164710
-104391.086627
-104391.004881
-104390.919921
-104390.841781
-104390.775414
-104390.730741
-104390.713111
-104390.726409
-104390.767859
-104390.831797
-104390.909439
-104390.992556
-104391.075433
-104391.154048
-104391.223510
-104391.279865
-104391.319644
-104391.343842
-104391.354421
-104391.355580
-104391.350652
-104391.341739
-104391.329899
-104391.317558
-104391.306991
-104391.302261
-104391.298163
-104391.281661
-104391.216814
-104391.118794
-104391.081254
-104391.134028
-104391.230639
-104391.286197
-104391.300721
-104391.302715
-104391.308969
-104391.318882
-104391.332479
-104391.343342
-104391.351653
-104391.355853
-104391.353284
-104391.340750
-104391.314642
-104391.272168
-104391.213586
-104391.142520
-104391.062706
-104390.979828
-104390.897064
-104390.820729
-104390.759842
-104390.722134
-104390.713463
-104390.734992
-104390.783599
-104390.852050
-104390.932131
-104391.015793
-104391.097801
-104391.174250
-104391.240569
-104391.292348
-104391.327596
-104391.347350
-104391.355080
-104391.354103
-104391.347952
-104391.338346
-104391.325840
-104391.314085
-104391.305013
-104391.301505
-104391.296566
-104391.267837
-104391.189257
-104391.098239
-104391.085097
-104391.160380
-104391.251057
-104391.292115
-104391.300715
-104391.302887
-104391.310560
-104391.322270
-104391.334514
-104391.345405
-104391.352659
-104391.355467
-104391.350487
-104391.333889
-104391.303671
-104391.256150
-104391.193861
-104391.119424
-104391.038906
-104390.955173
-104390.873253
-104390.800647
-104390.745386
-104390.715748
-104390.715703
-104390.745565
-104390.800644
-104390.872218
-104390.955110
-104391.038860
-104391.120084
-104391.193884
-104391.256787
-104391.303989
-104391.334571
-104391.350271
-104391.355450
-104391.352630
-104391.345519
-104391.334798
-104391.322566
-104391.310504
-104391.303182
-104391.300607
-104391.292490
-104391.250704
-104391.160698
-104391.084960
-104391.098648
-104391.189257
-104391.267712
-104391.297100
-104391.301376
-104391.304615
-104391.313619
-104391.325897
-104391.338436
-104391.347850
-104391.354137
-104391.354830
-104391.347293
-104391.327477
-104391.292751
-104391.240546
-104391.174204
-104391.097511
-104391.015770
-104390.931853
-104390.851794
-104390.783264
-104390.734595
-104390.713039
-104390.721634
-104390.759412
-104390.820155
-104390.896411
-104390.979459
-104391.062865
-104391.142071
-104391.213472
-104391.271850
-104391.314483
-104391.340852
-104391.353392
-104391.355728
-104391.351942
-104391.343370
-104391.332093
-104391.319519
-104391.308622
-104391.302727
-104391.300425
-104391.286186
-104391.230684
-104391.134619
-104391.079981
-104391.119316
-104391.216883
-104391.281457
-104391.300340
-104391.303023
-104391.307849
-104391.318172
-104391.330575
-104391.342421
-104391.351215
-104391.355916
-104391.354733
-104391.344502
-104391.320474
-104391.280593
-104391.224158
-104391.154514
-104391.076047
-104390.993022
-104390.909814
-104390.832058
-104390.768490
-104390.726756
-104390.713955
-104390.731087
-104390.776042
-104390.842355
-104390.921206
-104391.004857
-104391.087022
-104391.164962
-104391.231872
-104391.287709
-104391.325948
-104391.347728
-104391.356564
-104391.357269
-104391.351516
-104391.342688
-104391.330512
-104391.318200
-104391.308457
-104391.304251
-104391.300938
-104391.278489
-104391.207924
-104391.111336
-104391.084005
-104391.146851
-104391.241507
-104391.290614
-104391.302710
-104391.304728
-104391.311629
-104391.322611
-104391.335435
-104391.346167
-104391.355353
-104391.356763
-104391.356018
-104391.340329
-104391.313147
-104391.268613
-104391.208663
-104391.135642
-104391.055592
-104390.972089
-104390.889607
-104390.815079
-104390.756530
-104390.722441
-104390.717894
-104390.743593
-104390.795036
-104390.865806
-104390.946694
-104391.030777
-104391.112649
-104391.188120
-104391.251830
-104391.302557
-104391.334662
-104391.353699
-104391.359218
-104391.358735
-104391.351056
-104391.342072
-104391.328347
-104391.317760
-104391.308025
-104391.307207
-104391.299294
-104391.268405
-104391.175955
-104391.101763
-146053.177514
-146053.201161
-146053.251450
-146053.276671
-146053.303251
-146053.323760
-146053.354737
-146053.388875
-146053.429654
-146053.464556
-146053.496206
-146053.511031
-146053.512674
-146053.492580
-146053.463209
-146053.431615
-146053.420553
-146053.443763
-146053.498156
-146053.555835
-146053.597479
-146053.616675
-146053.620639
-146053.620136
-146053.620577
-146053.620394
-146053.612718
-146053.587440
-146053.539660
-146053.479537
-146053.432104
-146053.419411
-146053.438823
-146053.471843
-146053.499617
-146053.513049
-146053.507831
-146053.486674
-146053.454557
-146053.416461
-146053.377932
-146053.344133
-146053.316973
-146053.295043
-146053.270475
-146053.236563
-146053.190065
-146053.169533
-146053.175649
-146053.218509
-146053.257970
-146053.285712
-146053.307543
-146053.332230
-146053.362892
-146053.400181
-146053.439437
-146053.474839
-146053.500794
-146053.512844
-146053.507325
-146053.484881
-146053.451897
-146053.424555
-146053.421923
-146053.456314
-146053.513714
-146053.569313
-146053.603481
-146053.617419
-146053.618920
-146053.618923
-146053.619628
-146053.617948
-146053.605860
-146053.574289
-146053.521496
-146053.461972
-146053.423447
-146053.421270
-146053.446520
-146053.479989
-146053.503875
-146053.511958
-146053.502220
-146053.477692
-146053.442978
-146053.404319
-146053.366444
-146053.334601
-146053.309271
-146053.287210
-146053.260721
-146053.223227
-146053.177900
-146053.168783
-146053.184108
-146053.230355
-146053.265996
-146053.291064
-146053.313341
-146053.338682
-146053.372339
-146053.409480
-146053.448896
-146053.481956
-146053.504824
-146053.512043
-146053.501550
-146053.474703
-146053.442040
-146053.419166
-146053.426698
-146053.470343
-146053.530091
-146053.580329
-146053.608563
-146053.618144
-146053.618494
-146053.617794
-146053.618610
-146053.615359
-146053.598965
-146053.560684
-146053.503346
-146053.447293
-146053.418314
-146053.425840
-146053.455626
-146053.487526
-146053.507609
-146053.510593
-146053.496007
-146053.468040
-146053.431683
-146053.392700
-146053.355115
-146053.326898
-146053.302774
-146053.280378
-146053.251433
-146053.209482
-146053.170920
-146053.167055
-146053.195999
-146053.240678
-146053.273016
-146053.296299
-146053.319179
-146053.347032
-146053.382934
-146053.418143
-146053.458275
-146053.489470
-146053.507444
-146053.510167
-146053.494660
-146053.464863
-146053.432758
-146053.416449
-146053.435245
-146053.485958
-146053.545598
-146053.589930
-146053.611832
-146053.617829
-146053.617585
-146053.617553
-146053.617846
-146053.612110
-146053.588762
-146053.545373
-146053.486179
-146053.435279
-146053.417237
-146053.432900
-146053.465198
-146053.494768
-146053.510099
-146053.507763
-146053.489181
-146053.458184
-146053.420735
-146053.381559
-146053.347146
-146053.318906
-146053.296504
-146053.272829
-146053.240849
-146053.195385
-146053.167600
-146053.170238
-146053.209414
-146053.251228
-146053.280355
-146053.302650
-146053.326375
-146053.356184
-146053.392814
-146053.431627
-146053.468211
-146053.496030
-146053.510809
-146053.507694
-146053.487663
-146053.455910
-146053.426135
-146053.418217
-146053.447514
-146053.503590
-146053.560781
-146053.598718
-146053.615180
-146053.618278
-146053.617760
-146053.618016
-146053.617715
-146053.608466
-146053.580175
-146053.529977
-146053.470144
-146053.426869
-146053.419041
-146053.441756
-146053.475032
-146053.501453
-146053.511980
-146053.504989
-146053.482251
-146053.448736
-146053.410316
-146053.372100
-146053.339111
-146053.312972
-146053.291024
-146053.265644
-146053.230378
-146053.184017
-146053.168442
-146053.177855
-146053.223227
-146053.261599
-146053.288245
-146053.309925
-146053.334811
-146053.366859
-146053.404518
-146053.443513
-146053.477698
-146053.502408
-146053.512373
-146053.504500
-146053.480341
-146053.447105
-146053.421662
-146053.423816
-146053.462524
-146053.521797
-146053.574804
-146053.606602
-146053.618153
-146053.619619
-146053.619039
-146053.619773
-146053.617556
-146053.604254
-146053.569551
-146053.514226
-146053.456677
-146053.421855
-146053.425425
-146053.451617
-146053.485582
-146053.507925
-146053.513879
-146053.501612
-146053.475589
-146053.439744
-146053.401193
-146053.364028
-146053.333492
-146053.308487
-146053.286761
-146053.259505
-146053.219760
-146053.175649
-146053.170420
-146053.189519
-146053.236449
-146053.270851
-146053.295543
-146053.317411
-146053.344554
-146053.378398
-146053.416699
-146053.455717
-146053.487060
-146053.509366
-146053.511935
-146053.501658
-146053.472281
-146053.440733
-146053.420838
-146053.434281
-146053.481308
-146053.541488
-146053.589117
-146053.614384
-146053.621785
-146053.621762
-146053.621660
-146053.622007
-146053.618357
-146053.599320
-146053.558768
-146053.500202
-146053.446997
-146053.422162
-146053.434605
-146053.464493
-146053.496820
-146053.513555
-146053.515394
-146053.497522
-146053.469564
-146053.430885
-146053.393601
-146053.356066
-146053.329379
-146053.303649
-146053.284408
-146053.249415
-146053.211438
-146053.166361
-187715.213815
-187715.227128
-187715.229322
-187715.247353
-187715.263482
-187715.291315
-187715.315735
-187715.349188
-187715.382231
-187715.419767
-187715.449366
-187715.472856
-187715.479586
-187715.475482
-187715.461664
-187715.463551
-187715.516591
-187715.654900
-187715.864830
-187716.090846
-187716.273348
-187716.392185
-187716.455599
-187716.480710
-187716.476566
-187716.441502
-187716.363348
-187716.225946
-187716.026232
-187715.797369
-187715.603340
-187715.491188
-187715.457810
-187715.463875
-187715.475766
-187715.477250