<VTKFile type='UnstructuredGrid' version='0.1' byte_order='BigEndian'> 
<UnstructuredGrid> 
<Piece NumberOfPoints='  4225 ' NumberOfCells='  4096 '> 
<Points> 
<DataArray type='Float32' NumberOfComponents='3' Format='ascii'> 
0.000000e+00 0.000000e+00 0.000000e+00 
1.562500e-02 0.000000e+00 0.000000e+00 
3.125000e-02 0.000000e+00 0.000000e+00 
4.687500e-02 0.000000e+00 0.000000e+00 
6.250000e-02 0.000000e+00 0.000000e+00 
7.812500e-02 0.000000e+00 0.000000e+00 
9.375000e-02 0.000000e+00 0.000000e+00 
1.093750e-01 0.000000e+00 0.000000e+00 
1.250000e-01 0.000000e+00 0.000000e+00 
1.406250e-01 0.000000e+00 0.000000e+00 
1.562500e-01 0.000000e+00 0.000000e+00 
1.718750e-01 0.000000e+00 0.000000e+00 
1.875000e-01 0.000000e+00 0.000000e+00 
2.031250e-01 0.000000e+00 0.000000e+00 
2.187500e-01 0.000000e+00 0.000000e+00 
2.343750e-01 0.000000e+00 0.000000e+00 
2.500000e-01 0.000000e+00 0.000000e+00 
2.656250e-01 0.000000e+00 0.000000e+00 
2.812500e-01 0.000000e+00 0.000000e+00 
2.968750e-01 0.000000e+00 0.000000e+00 
3.125000e-01 0.000000e+00 0.000000e+00 
3.281250e-01 0.000000e+00 0.000000e+00 
3.437500e-01 0.000000e+00 0.000000e+00 
3.593750e-01 0.000000e+00 0.000000e+00 
3.750000e-01 0.000000e+00 0.000000e+00 
3.906250e-01 0.000000e+00 0.000000e+00 
4.062500e-01 0.000000e+00 0.000000e+00 
4.218750e-01 0.000000e+00 0.000000e+00 
4.375000e-01 0.000000e+00 0.000000e+00 
4.531250e-01 0.000000e+00 0.000000e+00 
4.687500e-01 0.000000e+00 0.000000e+00 
4.843750e-01 0.000000e+00 0.000000e+00 
5.000000e-01 0.000000e+00 0.000000e+00 
5.156250e-01 0.000000e+00 0.000000e+00 
5.312500e-01 0.000000e+00 0.000000e+00 
5.468750e-01 0.000000e+00 0.000000e+00 
5.625000e-01 0.000000e+00 0.000000e+00 
5.781250e-01 0.000000e+00 0.000000e+00 
5.937500e-01 0.000000e+00 0.000000e+00 
6.093750e-01 0.000000e+00 0.000000e+00 
6.250000e-01 0.000000e+00 0.000000e+00 
6.406250e-01 0.000000e+00 0.000000e+00 
6.562500e-01 0.000000e+00 0.000000e+00 
6.718750e-01 0.000000e+00 0.000000e+00 
6.875000e-01 0.000000e+00 0.000000e+00 
7.031250e-01 0.000000e+00 0.000000e+00 
7.187500e-01 0.000000e+00 0.000000e+00 
7.343750e-01 0.000000e+00 0.000000e+00 
7.500000e-01 0.000000e+00 0.000000e+00 
7.656250e-01 0.000000e+00 0.000000e+00 
7.812500e-01 0.000000e+00 0.000000e+00 
7.968750e-01 0.000000e+00 0.000000e+00 
8.125000e-01 0.000000e+00 0.000000e+00 
8.281250e-01 0.000000e+00 0.000000e+00 
8.437500e-01 0.000000e+00 0.000000e+00 
8.593750e-01 0.000000e+00 0.000000e+00 
8.750000e-01 0.000000e+00 0.000000e+00 
8.906250e-01 0.000000e+00 0.000000e+00 
9.062500e-01 0.000000e+00 0.000000e+00 
9.218750e-01 0.000000e+00 0.000000e+00 
9.375000e-01 0.000000e+00 0.000000e+00 
9.531250e-01 0.000000e+00 0.000000e+00 
9.687500e-01 0.000000e+00 0.000000e+00 
9.843750e-01 0.000000e+00 0.000000e+00 
1.000000e+00 0.000000e+00 0.000000e+00 
0.000000e+00 1.562500e-02 0.000000e+00 
1.562500e-02 1.562500e-02 0.000000e+00 
3.125000e-02 1.562500e-02 0.000000e+00 
4.687500e-02 1.562500e-02 0.000000e+00 
6.250000e-02 1.562500e-02 0.000000e+00 
7.812500e-02 1.562500e-02 0.000000e+00 
9.375000e-02 1.562500e-02 0.000000e+00 
1.093750e-01 1.562500e-02 0.000000e+00 
1.250000e-01 1.562500e-02 0.000000e+00 
1.406250e-01 1.562500e-02 0.000000e+00 
1.562500e-01 1.562500e-02 0.000000e+00 
1.718750e-01 1.562500e-02 0.000000e+00 
1.875000e-01 1.562500e-02 0.000000e+00 
2.031250e-01 1.562500e-02 0.000000e+00 
2.187500e-01 1.562500e-02 0.000000e+00 
2.343750e-01 1.562500e-02 0.000000e+00 
2.500000e-01 1.562500e-02 0.000000e+00 
2.656250e-01 1.562500e-02 0.000000e+00 
2.812500e-01 1.562500e-02 0.000000e+00 
2.968750e-01 1.562500e-02 0.000000e+00 
3.125000e-01 1.562500e-02 0.000000e+00 
3.281250e-01 1.562500e-02 0.000000e+00 
3.437500e-01 1.562500e-02 0.000000e+00 
3.593750e-01 1.562500e-02 0.000000e+00 
3.750000e-01 1.562500e-02 0.000000e+00 
3.906250e-01 1.562500e-02 0.000000e+00 
4.062500e-01 1.562500e-02 0.000000e+00 
4.218750e-01 1.562500e-02 0.000000e+00 
4.375000e-01 1.562500e-02 0.000000e+00 
4.531250e-01 1.562500e-02 0.000000e+00 
4.687500e-01 1.562500e-02 0.000000e+00 
4.843750e-01 1.562500e-02 0.000000e+00 
5.000000e-01 1.562500e-02 0.000000e+00 
5.156250e-01 1.562500e-02 0.000000e+00 
5.312500e-01 1.562500e-02 0.000000e+00 
5.468750e-01 1.562500e-02 0.000000e+00 
5.625000e-01 1.562500e-02 0.000000e+00 
5.781250e-01 1.562500e-02 0.000000e+00 
5.937500e-01 1.562500e-02 0.000000e+00 
6.093750e-01 1.562500e-02 0.000000e+00 
6.250000e-01 1.562500e-02 0.000000e+00 
6.406250e-01 1.562500e-02 0.000000e+00 
6.562500e-01 1.562500e-02 0.000000e+00 
6.718750e-01 1.562500e-02 0.000000e+00 
6.875000e-01 1.562500e-02 0.000000e+00 
7.031250e-01 1.562500e-02 0.000000e+00 
7.187500e-01 1.562500e-02 0.000000e+00 
7.343750e-01 1.562500e-02 0.000000e+00 
7.500000e-01 1.562500e-02 0.000000e+00 
7.656250e-01 1.562500e-02 0.000000e+00 
7.812500e-01 1.562500e-02 0.000000e+00 
7.968750e-01 1.562500e-02 0.000000e+00 
8.125000e-01 1.562500e-02 0.000000e+00 
8.281250e-01 1.562500e-02 0.000000e+00 
8.437500e-01 1.562500e-02 0.000000e+00 
8.593750e-01 1.562500e-02 0.000000e+00 
8.750000e-01 1.562500e-02 0.000000e+00 
8.906250e-01 1.562500e-02 0.000000e+00 
9.062500e-01 1.562500e-02 0.000000e+00 
9.218750e-01 1.562500e-02 0.000000e+00 
9.375000e-01 1.562500e-02 0.000000e+00 
9.531250e-01 1.562500e-02 0.000000e+00 
9.687500e-01 1.562500e-02 0.000000e+00 
9.843750e-01 1.562500e-02 0.000000e+00 
1.000000e+00 1.562500e-02 0.000000e+00 
0.000000e+00 3.125000e-02 0.000000e+00 
1.562500e-02 3.125000e-02 0.000000e+00 
3.125000e-02 3.125000e-02 0.000000e+00 
4.687500e-02 3.125000e-02 0.000000e+00 
6.250000e-02 3.125000e-02 0.000000e+00 
7.812500e-02 3.125000e-02 0.000000e+00 
9.375000e-02 3.125000e-02 0.000000e+00 
1.093750e-01 3.125000e-02 0.000000e+00 
1.250000e-01 3.125000e-02 0.000000e+00 
1.406250e-01 3.125000e-02 0.000000e+00 
1.562500e-01 3.125000e-02 0.000000e+00 
1.718750e-01 3.125000e-02 0.000000e+00 
1.875000e-01 3.125000e-02 0.000000e+00 
2.031250e-01 3.125000e-02 0.000000e+00 
2.187500e-01 3.125000e-02 0.000000e+00 
2.343750e-01 3.125000e-02 0.000000e+00 
2.500000e-01 3.125000e-02 0.000000e+00 
2.656250e-01 3.125000e-02 0.000000e+00 
2.812500e-01 3.125000e-02 0.000000e+00 
2.968750e-01 3.125000e-02 0.000000e+00 
3.125000e-01 3.125000e-02 0.000000e+00 
3.281250e-01 3.125000e-02 0.000000e+00 
3.437500e-01 3.125000e-02 0.000000e+00 
3.593750e-01 3.125000e-02 0.000000e+00 
3.750000e-01 3.125000e-02 0.000000e+00 
3.906250e-01 3.125000e-02 0.000000e+00 
4.062500e-01 3.125000e-02 0.000000e+00 
4.218750e-01 3.125000e-02 0.000000e+00 
4.375000e-01 3.125000e-02 0.000000e+00 
4.531250e-01 3.125000e-02 0.000000e+00 
4.687500e-01 3.125000e-02 0.000000e+00 
4.843750e-01 3.125000e-02 0.000000e+00 
5.000000e-01 3.125000e-02 0.000000e+00 
5.156250e-01 3.125000e-02 0.000000e+00 
5.312500e-01 3.125000e-02 0.000000e+00 
5.468750e-01 3.125000e-02 0.000000e+00 
5.625000e-01 3.125000e-02 0.000000e+00 
5.781250e-01 3.125000e-02 0.000000e+00 
5.937500e-01 3.125000e-02 0.000000e+00 
6.093750e-01 3.125000e-02 0.000000e+00 
6.250000e-01 3.125000e-02 0.000000e+00 
6.406250e-01 3.125000e-02 0.000000e+00 
6.562500e-01 3.125000e-02 0.000000e+00 
6.718750e-01 3.125000e-02 0.000000e+00 
6.875000e-01 3.125000e-02 0.000000e+00 
7.031250e-01 3.125000e-02 0.000000e+00 
7.187500e-01 3.125000e-02 0.000000e+00 
7.343750e-01 3.125000e-02 0.000000e+00 
7.500000e-01 3.125000e-02 0.000000e+00 
7.656250e-01 3.125000e-02 0.000000e+00 
7.812500e-01 3.125000e-02 0.000000e+00 
7.968750e-01 3.125000e-02 0.000000e+00 
8.125000e-01 3.125000e-02 0.000000e+00 
8.281250e-01 3.125000e-02 0.000000e+00 
8.437500e-01 3.125000e-02 0.000000e+00 
8.593750e-01 3.125000e-02 0.000000e+00 
8.750000e-01 3.125000e-02 0.000000e+00 
8.906250e-01 3.125000e-02 0.000000e+00 
9.062500e-01 3.125000e-02 0.000000e+00 
9.218750e-01 3.125000e-02 0.000000e+00 
9.375000e-01 3.125000e-02 0.000000e+00 
9.531250e-01 3.125000e-02 0.000000e+00 
9.687500e-01 3.125000e-02 0.000000e+00 
9.843750e-01 3.125000e-02 0.000000e+00 
1.000000e+00 3.125000e-02 0.000000e+00 
0.000000e+00 4.687500e-02 0.000000e+00 
1.562500e-02 4.687500e-02 0.000000e+00 
3.125000e-02 4.687500e-02 0.000000e+00 
4.687500e-02 4.687500e-02 0.000000e+00 
6.250000e-02 4.687500e-02 0.000000e+00 
7.812500e-02 4.687500e-02 0.000000e+00 
9.375000e-02 4.687500e-02 0.000000e+00 
1.093750e-01 4.687500e-02 0.000000e+00 
1.250000e-01 4.687500e-02 0.000000e+00 
1.406250e-01 4.687500e-02 0.000000e+00 
1.562500e-01 4.687500e-02 0.000000e+00 
1.718750e-01 4.687500e-02 0.000000e+00 
1.875000e-01 4.687500e-02 0.000000e+00 
2.031250e-01 4.687500e-02 0.000000e+00 
2.187500e-01 4.687500e-02 0.000000e+00 
2.343750e-01 4.687500e-02 0.000000e+00 
2.500000e-01 4.687500e-02 0.000000e+00 
2.656250e-01 4.687500e-02 0.000000e+00 
2.812500e-01 4.687500e-02 0.000000e+00 
2.968750e-01 4.687500e-02 0.000000e+00 
3.125000e-01 4.687500e-02 0.000000e+00 
3.281250e-01 4.687500e-02 0.000000e+00 
3.437500e-01 4.687500e-02 0.000000e+00 
3.593750e-01 4.687500e-02 0.000000e+00 
3.750000e-01 4.687500e-02 0.000000e+00 
3.906250e-01 4.687500e-02 0.000000e+00 
4.062500e-01 4.687500e-02 0.000000e+00 
4.218750e-01 4.687500e-02 0.000000e+00 
4.375000e-01 4.687500e-02 0.000000e+00 
4.531250e-01 4.687500e-02 0.000000e+00 
4.687500e-01 4.687500e-02 0.000000e+00 
4.843750e-01 4.687500e-02 0.000000e+00 
5.000000e-01 4.687500e-02 0.000000e+00 
5.156250e-01 4.687500e-02 0.000000e+00 
5.312500e-01 4.687500e-02 0.000000e+00 
5.468750e-01 4.687500e-02 0.000000e+00 
5.625000e-01 4.687500e-02 0.000000e+00 
5.781250e-01 4.687500e-02 0.000000e+00 
5.937500e-01 4.687500e-02 0.000000e+00 
6.093750e-01 4.687500e-02 0.000000e+00 
6.250000e-01 4.687500e-02 0.000000e+00 
6.406250e-01 4.687500e-02 0.000000e+00 
6.562500e-01 4.687500e-02 0.000000e+00 
6.718750e-01 4.687500e-02 0.000000e+00 
6.875000e-01 4.687500e-02 0.000000e+00 
7.031250e-01 4.687500e-02 0.000000e+00 
7.187500e-01 4.687500e-02 0.000000e+00 
7.343750e-01 4.687500e-02 0.000000e+00 
7.500000e-01 4.687500e-02 0.000000e+00 
[...]
<CellData Scalars='scalars'>
<DataArray type='Float32' Name='exx' Format='ascii'> 
1.939494e-03
1.920816e-03
1.883639e-03
1.828321e-03
1.755396e-03
1.665566e-03
1.559695e-03
1.438803e-03
1.304055e-03
1.156749e-03
9.983017e-04
8.302406e-04
6.541839e-04
4.718269e-04
2.849261e-04
9.528123e-05
-9.528123e-05
-2.849261e-04
-4.718269e-04
-6.541839e-04
-8.302406e-04
-9.983017e-04
-1.156749e-03
-1.304055e-03
-1.438803e-03
-1.559695e-03
-1.665566e-03
-1.755396e-03
-1.828321e-03
-1.883639e-03
-1.920816e-03
-1.939494e-03
-1.939494e-03
-1.920816e-03
-1.883639e-03
-1.828321e-03
-1.755396e-03
-1.665566e-03
-1.559695e-03
-1.438803e-03
-1.304055e-03
-1.156749e-03
-9.983017e-04
-8.302406e-04
-6.541839e-04
-4.718269e-04
-2.849261e-04
-9.528123e-05
9.528123e-05
2.849261e-04
4.718269e-04
6.541839e-04
8.302406e-04
9.983017e-04
1.156749e-03
1.304055e-03
1.438803e-03
1.559695e-03
1.665566e-03
1.755396e-03
1.828321e-03
1.883639e-03
1.920816e-03
1.939494e-03
1.951118e-03
1.932328e-03
1.894928e-03
1.839279e-03
1.765917e-03
1.675548e-03
1.569043e-03
1.447427e-03
1.311871e-03
1.163682e-03
1.004285e-03
8.352166e-04
6.581047e-04
4.746548e-04
2.866338e-04
9.585230e-05
-9.585230e-05
-2.866338e-04
-4.746548e-04
-6.581047e-04
-8.352166e-04
-1.004285e-03
-1.163682e-03
-1.311871e-03
-1.447427e-03
-1.569043e-03
-1.675548e-03
-1.765917e-03
-1.839279e-03
-1.894928e-03
-1.932328e-03
-1.951118e-03
-1.951118e-03
-1.932328e-03
-1.894928e-03
-1.839279e-03
-1.765917e-03
-1.675548e-03
-1.569043e-03
-1.447427e-03
-1.311871e-03
-1.163682e-03
-1.004285e-03
-8.352166e-04
-6.581047e-04
-4.746548e-04
-2.866338e-04
-9.585230e-05
9.585230e-05
2.866338e-04
4.746548e-04
6.581047e-04
8.352166e-04
1.004285e-03
1.163682e-03
1.311871e-03
1.447427e-03
1.569043e-03
1.675548e-03
1.765917e-03
1.839279e-03
1.894928e-03
1.932328e-03
1.951118e-03
1.974410e-03
1.955396e-03
1.917550e-03
1.861236e-03
1.786998e-03
1.695551e-03
1.587774e-03
1.464706e-03
1.327532e-03
1.177573e-03
1.016274e-03
8.451873e-04
6.659610e-04
4.803212e-04
2.900556e-04
9.699656e-05
-9.699656e-05
-2.900556e-04
-4.803212e-04
-6.659610e-04
-8.451873e-04
-1.016274e-03
-1.177573e-03
-1.327532e-03
-1.464706e-03
-1.587774e-03
-1.695551e-03
-1.786998e-03
-1.861236e-03
-1.917550e-03
-1.955396e-03
-1.974410e-03
-1.974410e-03
-1.955396e-03
-1.917550e-03
-1.861236e-03
-1.786998e-03
-1.695551e-03
-1.587774e-03
-1.464706e-03
-1.327532e-03
-1.177573e-03
-1.016274e-03
-8.451873e-04
-6.659610e-04
-4.803212e-04
-2.900556e-04
-9.699656e-05
9.699656e-05
2.900556e-04
4.803212e-04
6.659610e-04
8.451873e-04
1.016274e-03
1.177573e-03
1.327532e-03
1.464706e-03
1.587774e-03
1.695551e-03
1.786998e-03
1.861236e-03
1.917550e-03
1.955396e-03
1.974410e-03
2.009457e-03
1.990105e-03
1.951587e-03
1.894274e-03
1.818718e-03
1.725647e-03
1.615958e-03
1.490705e-03
1.351096e-03
1.198476e-03
1.034313e-03
8.601898e-04
6.777821e-04
4.888471e-04
2.952042e-04
9.871830e-05
-9.871830e-05
-2.952042e-04
-4.888471e-04
-6.777821e-04
-8.601898e-04
-1.034313e-03
-1.198476e-03
-1.351096e-03
-1.490705e-03
-1.615958e-03
-1.725647e-03
-1.818718e-03
-1.894274e-03
-1.951587e-03
-1.990105e-03
-2.009457e-03
-2.009457e-03
-1.990105e-03
-1.951587e-03
-1.894274e-03
-1.818718e-03
-1.725647e-03
-1.615958e-03
-1.490705e-03
-1.351096e-03
-1.198476e-03
-1.034313e-03
-8.601898e-04
-6.777821e-04
-4.888471e-04
-2.952042e-04
-9.871830e-05
9.871830e-05
2.952042e-04
4.888471e-04
6.777821e-04
8.601898e-04
1.034313e-03
1.198476e-03
1.351096e-03
1.490705e-03
1.615958e-03
1.725647e-03
1.818718e-03
1.894274e-03
1.951587e-03
1.990105e-03
2.009457e-03
2.056388e-03
2.036584e-03
1.997166e-03
1.938515e-03
1.861195e-03
1.765950e-03
1.653698e-03
1.525521e-03
1.382651e-03
1.226466e-03
1.058470e-03
8.802795e-04
6.936117e-04
5.002641e-04
3.020987e-04
1.010239e-04
-1.010239e-04
-3.020987e-04
-5.002641e-04
-6.936117e-04
-8.802795e-04
-1.058470e-03
-1.226466e-03
-1.382651e-03
-1.525521e-03
-1.653698e-03
-1.765950e-03
-1.861195e-03
-1.938515e-03
-1.997166e-03
-2.036584e-03
-2.056388e-03
-2.056388e-03
-2.036584e-03
-1.997166e-03
-1.938515e-03
-1.861195e-03
-1.765950e-03
-1.653698e-03
-1.525521e-03
-1.382651e-03
-1.226466e-03
-1.058470e-03
-8.802795e-04
-6.936117e-04
-5.002641e-04
-3.020987e-04
-1.010239e-04
1.010239e-04
3.020987e-04
5.002641e-04
6.936117e-04
8.802795e-04
1.058470e-03
1.226466e-03
1.382651e-03
1.525521e-03
1.653698e-03
1.765950e-03
1.861195e-03
1.938515e-03
1.997166e-03
2.036584e-03
2.056388e-03
2.115375e-03
2.095002e-03
2.054454e-03
1.994120e-03
1.914582e-03
1.816605e-03
1.701134e-03
1.569279e-03
1.422312e-03
1.261647e-03
1.088831e-03
9.055299e-04
7.135077e-04
5.146140e-04
3.107642e-04
1.039217e-04
-1.039217e-04
-3.107642e-04
-5.146140e-04
-7.135077e-04
-9.055299e-04
-1.088831e-03
-1.261647e-03
-1.422312e-03
-1.569279e-03
-1.701134e-03
-1.816605e-03
-1.914582e-03
-1.994120e-03
-2.054454e-03
-2.095002e-03
-2.115375e-03
-2.115375e-03
-2.095002e-03
-2.054454e-03
-1.994120e-03
-1.914582e-03
-1.816605e-03
-1.701134e-03
-1.569279e-03
-1.422312e-03
-1.261647e-03
-1.088831e-03
-9.055299e-04
-7.135077e-04
-5.146140e-04
-3.107642e-04
-1.039217e-04
1.039217e-04
3.107642e-04
5.146140e-04
7.135077e-04
9.055299e-04
1.088831e-03
1.261647e-03
1.422312e-03
1.569279e-03
1.701134e-03
1.816605e-03
1.914582e-03
1.994120e-03
2.054454e-03
2.095002e-03
2.115375e-03
2.186629e-03
2.165571e-03
2.123657e-03
2.061291e-03
1.979073e-03
1.877796e-03
1.758435e-03
1.622139e-03
1.470222e-03
1.304145e-03
1.125508e-03
9.360320e-04
7.375417e-04
5.319484e-04
3.212321e-04
1.074222e-04
-1.074222e-04
-3.212321e-04
-5.319484e-04
-7.375417e-04
-9.360320e-04
-1.125508e-03
-1.304145e-03
-1.470222e-03
-1.622139e-03
-1.758435e-03
-1.877796e-03
-1.979073e-03
-2.061291e-03
-2.123657e-03
-2.165571e-03
-2.186629e-03
-2.186629e-03
-2.165571e-03
-2.123657e-03
-2.061291e-03
-1.979073e-03
-1.877796e-03
-1.758435e-03
-1.622139e-03
-1.470222e-03
-1.304145e-03
-1.125508e-03
-9.360320e-04
-7.375417e-04
-5.319484e-04
-3.212321e-04
-1.074222e-04
1.074222e-04
3.212321e-04
5.319484e-04
7.375417e-04
9.360320e-04
1.125508e-03
1.304145e-03
1.470222e-03
1.622139e-03
1.758435e-03
1.877796e-03
1.979073e-03
2.061291e-03
2.123657e-03
2.165571e-03
2.186629e-03
2.270405e-03
2.248539e-03
2.205019e-03
2.140264e-03
2.054897e-03
1.949739e-03
1.825805e-03
1.684288e-03
1.526549e-03
1.354109e-03
1.168629e-03
9.718937e-04
7.657987e-04
5.523286e-04
3.335393e-04
1.115378e-04
-1.115378e-04
-3.335393e-04
-5.523286e-04
-7.657987e-04
-9.718937e-04
-1.168629e-03
-1.354109e-03
-1.526549e-03
-1.684288e-03
-1.825805e-03
-1.949739e-03
-2.054897e-03
-2.140264e-03
-2.205019e-03
-2.248539e-03
-2.270405e-03
-2.270405e-03
-2.248539e-03
-2.205019e-03
-2.140264e-03
-2.054897e-03
-1.949739e-03
-1.825805e-03
-1.684288e-03
-1.526549e-03
-1.354109e-03
-1.168629e-03
-9.718937e-04
-7.657987e-04
-5.523286e-04
-3.335393e-04
-1.115378e-04
1.115378e-04
3.335393e-04
5.523286e-04
7.657987e-04
9.718937e-04
1.168629e-03
1.354109e-03
1.526549e-03
1.684288e-03
1.825805e-03
1.949739e-03
2.054897e-03
2.140264e-03
2.205019e-03
2.248539e-03
2.270405e-03
2.366990e-03
2.344194e-03
2.298823e-03
2.231313e-03
2.142314e-03
2.032683e-03
1.903477e-03
1.755939e-03
1.591490e-03
1.411715e-03
1.218343e-03
1.013239e-03
7.983765e-04
5.758252e-04
3.477284e-04
1.162828e-04
-1.162828e-04
-3.477284e-04
-5.758252e-04
-7.983765e-04
-1.013239e-03
-1.218343e-03
-1.411715e-03
-1.591490e-03
-1.755939e-03
-1.903477e-03
-2.032683e-03
-2.142314e-03
-2.231313e-03
-2.298823e-03
-2.344194e-03
-2.366990e-03
-2.366990e-03
-2.344194e-03
-2.298823e-03
-2.231313e-03
-2.142314e-03
-2.032683e-03
-1.903477e-03
-1.755939e-03
-1.591490e-03
-1.411715e-03
-1.218343e-03
-1.013239e-03
-7.983765e-04
-5.758252e-04
-3.477284e-04
-1.162828e-04
1.162828e-04
3.477284e-04
5.758252e-04
7.983765e-04
1.013239e-03
1.218343e-03
1.411715e-03
1.591490e-03
1.755939e-03
1.903477e-03
2.032683e-03
2.142314e-03
2.231313e-03
2.298823e-03
2.344194e-03
2.366990e-03
2.476710e-03
2.452858e-03
2.405384e-03
2.334744e-03
2.241620e-03
2.126907e-03
1.991712e-03
1.837335e-03
1.665263e-03
1.477154e-03
1.274819e-03
1.060207e-03
8.353849e-04
6.025173e-04
3.638472e-04
1.216730e-04
-1.216730e-04
-3.638472e-04
-6.025173e-04
-8.353849e-04
-1.060207e-03
-1.274819e-03
-1.477154e-03
-1.665263e-03
-1.837335e-03
-1.991712e-03
-2.126907e-03
-2.241620e-03
-2.334744e-03
-2.405384e-03
-2.452858e-03
-2.476710e-03
-2.476710e-03
-2.452858e-03
-2.405384e-03
-2.334744e-03
-2.241620e-03
-2.126907e-03
-1.991712e-03
-1.837335e-03
-1.665263e-03
-1.477154e-03
-1.274819e-03
-1.060207e-03
-8.353849e-04
-6.025173e-04
-3.638472e-04
-1.216730e-04
1.216730e-04
3.638472e-04
6.025173e-04
8.353849e-04
1.060207e-03
1.274819e-03
1.477154e-03
1.665263e-03
1.837335e-03
1.991712e-03
2.126907e-03
2.241620e-03
2.334744e-03
2.405384e-03
2.452858e-03
2.476710e-03
2.599925e-03
2.574886e-03
2.525050e-03
2.450896e-03
2.353139e-03
2.232719e-03
2.090798e-03
1.928740e-03
1.748108e-03
1.550641e-03
1.338240e-03
1.112952e-03
8.769446e-04
6.324920e-04
3.819483e-04
1.277261e-04
-1.277261e-04
-3.819483e-04
-6.324920e-04
-8.769446e-04
-1.112952e-03
-1.338240e-03
-1.550641e-03
-1.748108e-03
-1.928740e-03
-2.090798e-03
-2.232719e-03
-2.353139e-03
-2.450896e-03
-2.525050e-03
-2.574886e-03
-2.599925e-03
-2.599925e-03
-2.574886e-03
-2.525050e-03
-2.450896e-03
-2.353139e-03
-2.232719e-03
-2.090798e-03
-1.928740e-03
-1.748108e-03
-1.550641e-03
-1.338240e-03
-1.112952e-03
-8.769446e-04
-6.324920e-04
-3.819483e-04
-1.277261e-04
1.277261e-04
3.819483e-04
6.324920e-04
8.769446e-04
1.112952e-03
1.338240e-03
1.550641e-03
1.748108e-03
1.928740e-03
2.090798e-03
2.232719e-03
2.353139e-03
2.450896e-03
2.525050e-03
2.574886e-03
2.599925e-03
2.737020e-03
2.710661e-03
2.658197e-03
2.580133e-03
2.477221e-03
2.350452e-03
2.201046e-03
2.030444e-03
1.840287e-03
1.632407e-03
1.408807e-03
1.171638e-03
9.231863e-04
6.658437e-04
4.020886e-04
1.344612e-04
-1.344612e-04
-4.020886e-04
-6.658437e-04
-9.231863e-04
-1.171638e-03
-1.408807e-03
-1.632407e-03
-1.840287e-03
-2.030444e-03
-2.201046e-03
-2.350452e-03
-2.477221e-03
-2.580133e-03
-2.658197e-03
-2.710661e-03
-2.737020e-03
-2.737020e-03
-2.710661e-03
-2.658197e-03
-2.580133e-03
-2.477221e-03
-2.350452e-03
-2.201046e-03
-2.030444e-03
-1.840287e-03
-1.632407e-03
-1.408807e-03
-1.171638e-03
-9.231863e-04
-6.658437e-04
-4.020886e-04
-1.344612e-04
1.344612e-04
4.020886e-04
6.658437e-04
9.231863e-04
1.171638e-03
1.408807e-03
1.632407e-03
1.840287e-03
2.030444e-03
2.201046e-03
2.350452e-03
2.477221e-03
2.580133e-03
2.658197e-03
2.710661e-03
2.737020e-03
2.888410e-03
2.860593e-03
2.805227e-03
2.722845e-03
2.614240e-03
2.480459e-03
2.322790e-03
2.142751e-03
1.942077e-03
1.722699e-03
1.486730e-03
1.236444e-03
9.742494e-04
7.026727e-04
4.243288e-04
1.418985e-04
-1.418985e-04
-4.243288e-04
-7.026727e-04
-9.742494e-04
-1.236444e-03
-1.486730e-03
-1.722699e-03
-1.942077e-03
-2.142751e-03
-2.322790e-03
-2.480459e-03
-2.614240e-03
-2.722845e-03
-2.805227e-03
-2.860593e-03
-2.888410e-03
-2.888410e-03
-2.860593e-03
-2.805227e-03
-2.722845e-03
-2.614240e-03
-2.480459e-03
-2.322790e-03
-2.142751e-03
-1.942077e-03
-1.722699e-03
-1.486730e-03
-1.236444e-03
-9.742494e-04
-7.026727e-04
-4.243288e-04
-1.418985e-04
1.418985e-04
4.243288e-04
7.026727e-04
9.742494e-04
1.236444e-03
1.486730e-03
1.722699e-03
1.942077e-03
2.142751e-03
2.322790e-03
2.480459e-03
2.614240e-03
2.722845e-03
2.805227e-03
2.860593e-03
2.888410e-03
3.054527e-03
3.025110e-03
2.966560e-03
2.879440e-03
2.764590e-03
2.623115e-03
2.456378e-03
2.265985e-03
2.053769e-03
1.821774e-03
1.572235e-03
1.307554e-03
1.030280e-03
7.430846e-04
4.487327e-04
1.500593e-04
-1.500593e-04
-4.487327e-04
-7.430846e-04
-1.030280e-03
-1.307554e-03
-1.572235e-03
-1.821774e-03
-2.053769e-03
-2.265985e-03
-2.456378e-03
-2.623115e-03
-2.764590e-03
-2.879440e-03
-2.966560e-03
-3.025110e-03
-3.054527e-03
-3.054527e-03
-3.025110e-03
-2.966560e-03
-2.879440e-03
-2.764590e-03
-2.623115e-03
-2.456378e-03
-2.265985e-03
-2.053769e-03
-1.821774e-03
-1.572235e-03
-1.307554e-03
-1.030280e-03
-7.430846e-04
-4.487327e-04
-1.500593e-04
1.500593e-04
4.487327e-04
7.430846e-04
1.030280e-03
1.307554e-03
1.572235e-03
1.821774e-03
2.053769e-03
2.265985e-03
2.456378e-03
2.623115e-03
2.764590e-03
2.879440e-03
2.966560e-03
3.025110e-03
3.054527e-03
3.235821e-03
3.204658e-03
3.142633e-03
3.050342e-03
2.928675e-03
2.778803e-03
2.602170e-03
2.400477e-03
2.175665e-03
1.929901e-03
1.665551e-03
1.385160e-03
1.091430e-03
7.871885e-04
4.753661e-04
1.589657e-04
-1.589657e-04
-4.753661e-04
-7.871885e-04
-1.091430e-03
-1.385160e-03
-1.665551e-03
-1.929901e-03
-2.175665e-03
-2.400477e-03
-2.602170e-03
-2.778803e-03
-2.928675e-03
-3.050342e-03
-3.142633e-03
-3.204658e-03
-3.235821e-03
-3.235821e-03
-3.204658e-03
-3.142633e-03
-3.050342e-03
-2.928675e-03
-2.778803e-03
-2.602170e-03
-2.400477e-03
-2.175665e-03
-1.929901e-03
-1.665551e-03
-1.385160e-03
-1.091430e-03
-7.871885e-04
-4.753661e-04
-1.589657e-04
1.589657e-04
4.753661e-04
7.871885e-04
1.091430e-03
1.385160e-03
1.665551e-03
1.929901e-03
2.175665e-03
2.400477e-03
2.602170e-03
2.778803e-03
2.928675e-03
3.050342e-03
3.142633e-03
3.204658e-03
3.235821e-03
3.432747e-03
3.399688e-03
3.333888e-03
3.235981e-03
3.106909e-03
2.947917e-03
2.760534e-03
2.546566e-03
2.308072e-03
2.047351e-03
1.766913e-03
1.469459e-03
1.157852e-03
8.350955e-04
5.042961e-04
1.686401e-04
-1.686401e-04
-5.042961e-04
-8.350955e-04
-1.157852e-03
-1.469459e-03
-1.766913e-03
-2.047351e-03
-2.308072e-03
-2.546566e-03
-2.760534e-03
-2.947917e-03
-3.106909e-03
-3.235981e-03
-3.333888e-03
-3.399688e-03
-3.432747e-03
-3.432747e-03
-3.399688e-03
-3.333888e-03
-3.235981e-03
-3.106909e-03
-2.947917e-03
-2.760534e-03
-2.546566e-03
-2.308072e-03
-2.047351e-03
-1.766913e-03
-1.469459e-03
-1.157852e-03
-8.350955e-04
-5.042961e-04
-1.686401e-04
1.686401e-04
5.042961e-04
8.350955e-04
1.157852e-03
1.469459e-03
1.766913e-03
2.047351e-03
2.308072e-03
2.546566e-03
2.760534e-03
2.947917e-03
3.106909e-03
3.235981e-03
3.333888e-03
3.399688e-03
3.432747e-03
3.645763e-03
3.610653e-03
3.540769e-03
3.436787e-03
3.299706e-03
3.130847e-03
2.931836e-03
2.704590e-03
2.451298e-03
2.174398e-03
1.876557e-03
1.560645e-03
1.229702e-03
8.869166e-04
5.355897e-04
1.791049e-04
-1.791049e-04
-5.355897e-04
-8.869166e-04
-1.229702e-03
-1.560645e-03
-1.876557e-03
-2.174398e-03
-2.451298e-03
-2.704590e-03
-2.931836e-03
-3.130847e-03
-3.299706e-03
-3.436787e-03
-3.540769e-03
-3.610653e-03
-3.645763e-03
-3.645763e-03
-3.610653e-03
-3.540769e-03
-3.436787e-03
-3.299706e-03
-3.130847e-03
-2.931836e-03
-2.704590e-03
-2.451298e-03
-2.174398e-03
-1.876557e-03
-1.560645e-03
-1.229702e-03
-8.869166e-04
-5.355897e-04
-1.791049e-04
1.791049e-04
5.355897e-04
8.869166e-04
1.229702e-03
1.560645e-03
1.876557e-03
2.174398e-03
2.451298e-03
2.704590e-03
2.931836e-03
3.130847e-03
3.299706e-03
3.436787e-03
3.540769e-03
3.610653e-03
3.645763e-03
3.875316e-03
3.837994e-03
3.763711e-03
3.653181e-03
3.507469e-03
3.327978e-03
3.116436e-03
2.874882e-03
2.605641e-03
2.311307e-03
1.994713e-03
1.658909e-03
1.307129e-03
9.427605e-04
5.693126e-04
1.903820e-04
-1.903820e-04
-5.693126e-04
-9.427605e-04
-1.307129e-03
-1.658909e-03
-1.994713e-03
-2.311307e-03
-2.605641e-03
-2.874882e-03
-3.116436e-03
-3.327978e-03
-3.507469e-03
-3.653181e-03
-3.763711e-03
-3.837994e-03
-3.875316e-03
-3.875316e-03
-3.837994e-03
-3.763711e-03
-3.653181e-03
-3.507469e-03
-3.327978e-03
-3.116436e-03
-2.874882e-03
-2.605641e-03
-2.311307e-03
-1.994713e-03
-1.658909e-03
-1.307129e-03
-9.427605e-04
-5.693126e-04
-1.903820e-04
1.903820e-04
5.693126e-04
9.427605e-04
1.307129e-03
1.658909e-03
1.994713e-03
2.311307e-03
2.605641e-03
2.874882e-03
3.116436e-03
3.327978e-03
3.507469e-03
3.653181e-03
3.763711e-03
3.837994e-03
3.875316e-03
4.121830e-03
4.082134e-03
4.003125e-03
3.885565e-03
3.730583e-03
3.539675e-03
3.314677e-03
3.057757e-03
2.771390e-03
2.458332e-03
2.121599e-03
1.764435e-03
1.390277e-03
1.002731e-03
6.055274e-04
2.024925e-04
-2.024925e-04
-6.055274e-04
-1.002731e-03
-1.390277e-03
-1.764435e-03
-2.121599e-03
-2.458332e-03
-2.771390e-03
-3.057757e-03
-3.314677e-03
-3.539675e-03
-3.730583e-03
-3.885565e-03
-4.003125e-03
-4.082134e-03
-4.121830e-03
-4.121830e-03
-4.082134e-03
-4.003125e-03
-3.885565e-03
-3.730583e-03
-3.539675e-03
-3.314677e-03
-3.057757e-03
-2.771390e-03
-2.458332e-03
-2.121599e-03
-1.764435e-03
-1.390277e-03
-1.002731e-03
-6.055274e-04
-2.024925e-04
2.024925e-04
6.055274e-04
1.002731e-03
1.390277e-03
1.764435e-03
2.121599e-03
2.458332e-03
2.771390e-03
3.057757e-03
3.314677e-03
3.539675e-03
3.730583e-03
3.885565e-03
4.003125e-03
4.082134e-03
4.121830e-03
4.385697e-03
4.343461e-03
4.259394e-03
4.134307e-03
3.969405e-03
3.766275e-03
3.526873e-03
3.253506e-03
2.948806e-03
2.615708e-03
2.257418e-03
1.877389e-03
1.479279e-03
1.066923e-03
6.442915e-04
2.154555e-04
-2.154555e-04
-6.442915e-04
-1.066923e-03
-1.479279e-03
-1.877389e-03
-2.257418e-03
-2.615708e-03
-2.948806e-03
-3.253506e-03
-3.526873e-03
-3.766275e-03
-3.969405e-03
-4.134307e-03
-4.259394e-03
-4.343461e-03
-4.385697e-03
-4.385697e-03
-4.343461e-03
-4.259394e-03
-4.134307e-03
-3.969405e-03
-3.766275e-03
-3.526873e-03
-3.253506e-03
-2.948806e-03
-2.615708e-03
-2.257418e-03
-1.877389e-03
-1.479279e-03
-1.066923e-03
-6.442915e-04
-2.154555e-04
2.154555e-04
6.442915e-04
1.066923e-03
1.479279e-03
1.877389e-03
2.257418e-03
2.615708e-03
2.948806e-03
3.253506e-03
3.526873e-03
3.766275e-03
3.969405e-03
4.134307e-03
4.259394e-03
4.343461e-03
4.385697e-03
4.667261e-03
4.622313e-03
4.532849e-03
4.399731e-03
4.224242e-03
4.008071e-03
3.753300e-03
3.462383e-03
3.138121e-03
2.783637e-03
2.402345e-03
1.997918e-03
1.574249e-03
1.135420e-03
6.856553e-04
2.292878e-04
-2.292878e-04
-6.856553e-04
-1.135420e-03
-1.574249e-03
-1.997918e-03
-2.402345e-03
-2.783637e-03
-3.138121e-03
-3.462383e-03
-3.753300e-03
-4.008071e-03
-4.224242e-03
-4.399731e-03
-4.532849e-03
-4.622313e-03
-4.667261e-03
-4.667261e-03
-4.622313e-03
-4.532849e-03
-4.399731e-03
-4.224242e-03
-4.008071e-03
-3.753300e-03
-3.462383e-03
-3.138121e-03
-2.783637e-03
-2.402345e-03
-1.997918e-03
-1.574249e-03
-1.135420e-03
-6.856553e-04
-2.292878e-04
2.292878e-04
6.856553e-04
1.135420e-03
1.574249e-03
1.997918e-03
2.402345e-03
2.783637e-03
3.138121e-03
3.462383e-03
3.753300e-03
4.008071e-03
4.224242e-03
4.399731e-03
4.532849e-03
4.622313e-03
4.667261e-03
4.966795e-03
4.918962e-03
4.823756e-03
4.682096e-03
4.495344e-03
4.265300e-03
3.994178e-03
3.684590e-03
3.339518e-03
2.962284e-03
2.556522e-03
2.126139e-03
1.675281e-03
1.208288e-03
7.296590e-04
2.440030e-04
-2.440030e-04
-7.296590e-04
-1.208288e-03
-1.675281e-03
-2.126139e-03
-2.556522e-03
-2.962284e-03
-3.339518e-03
-3.684590e-03
-3.994178e-03
-4.265300e-03
-4.495344e-03
-4.682096e-03
-4.823756e-03
-4.918962e-03
-4.966795e-03
-4.966795e-03
-4.918962e-03
-4.823756e-03
-4.682096e-03
-4.495344e-03
-4.265300e-03
-3.994178e-03
-3.684590e-03
-3.339518e-03
-2.962284e-03
-2.556522e-03
-2.126139e-03
-1.675281e-03
-1.208288e-03
-7.296590e-04
-2.440030e-04
2.440030e-04
7.296590e-04
1.208288e-03
1.675281e-03
2.126139e-03
2.556522e-03
2.962284e-03
3.339518e-03
3.684590e-03
3.994178e-03
4.265300e-03
4.495344e-03
4.682096e-03
4.823756e-03
4.918962e-03
4.966795e-03
5.284484e-03
5.233592e-03
5.132297e-03
4.981575e-03
4.782878e-03
4.538120e-03
4.249656e-03
3.920267e-03
3.553123e-03
3.151760e-03
2.720044e-03
2.262133e-03
1.782436e-03
1.285573e-03
7.763300e-04
2.596101e-04
-2.596101e-04
-7.763300e-04
-1.285573e-03
-1.782436e-03
-2.262133e-03
-2.720044e-03
-3.151760e-03
-3.553123e-03
-3.920267e-03
-4.249656e-03
-4.538120e-03
-4.782878e-03
-4.981575e-03
-5.132297e-03
-5.233592e-03
-5.284484e-03
-5.284484e-03
-5.233592e-03
-5.132297e-03
-4.981575e-03
-4.782878e-03
-4.538120e-03
-4.249656e-03
-3.920267e-03
-3.553123e-03
-3.151760e-03
-2.720044e-03
-2.262133e-03
-1.782436e-03
-1.285573e-03
-7.763300e-04
-2.596101e-04
2.596101e-04
7.763300e-04
1.285573e-03
1.782436e-03
2.262133e-03
2.720044e-03
3.151760e-03
3.553123e-03
3.920267e-03
4.249656e-03
4.538120e-03
4.782878e-03
4.981575e-03
5.132297e-03
5.233592e-03
5.284484e-03
5.620403e-03
5.566275e-03
5.458541e-03