<VTKFile type='UnstructuredGrid' version='0.1' byte_order='BigEndian'> 
<UnstructuredGrid> 
<Piece NumberOfPoints=' 10251 ' NumberOfCells='  2500 '> 
<Points> 
<DataArray type='Float32' NumberOfComponents='3' Format='ascii'> 
0.000000e+00 0.000000e+00 0.000000e+00 
6.250000e+02 0.000000e+00 0.000000e+00 
1.250000e+03 0.000000e+00 0.000000e+00 
1.875000e+03 0.000000e+00 0.000000e+00 
2.500000e+03 0.000000e+00 0.000000e+00 
3.125000e+03 0.000000e+00 0.000000e+00 
3.750000e+03 0.000000e+00 0.000000e+00 
4.375000e+03 0.000000e+00 0.000000e+00 
5.000000e+03 0.000000e+00 0.000000e+00 
5.625000e+03 0.000000e+00 0.000000e+00 
6.250000e+03 0.000000e+00 0.000000e+00 
6.875000e+03 0.000000e+00 0.000000e+00 
7.500000e+03 0.000000e+00 0.000000e+00 
8.125000e+03 0.000000e+00 0.000000e+00 
8.750000e+03 0.000000e+00 0.000000e+00 
9.375000e+03 0.000000e+00 0.000000e+00 
1.000000e+04 0.000000e+00 0.000000e+00 
1.062500e+04 0.000000e+00 0.000000e+00 
1.125000e+04 0.000000e+00 0.000000e+00 
1.187500e+04 0.000000e+00 0.000000e+00 
1.250000e+04 0.000000e+00 0.000000e+00 
1.312500e+04 0.000000e+00 0.000000e+00 
1.375000e+04 0.000000e+00 0.000000e+00 
1.437500e+04 0.000000e+00 0.000000e+00 
1.500000e+04 0.000000e+00 0.000000e+00 
1.562500e+04 0.000000e+00 0.000000e+00 
1.625000e+04 0.000000e+00 0.000000e+00 
1.687500e+04 0.000000e+00 0.000000e+00 
1.750000e+04 0.000000e+00 0.000000e+00 
1.812500e+04 0.000000e+00 0.000000e+00 
1.875000e+04 0.000000e+00 0.000000e+00 
1.937500e+04 0.000000e+00 0.000000e+00 
2.000000e+04 0.000000e+00 0.000000e+00 
2.062500e+04 0.000000e+00 0.000000e+00 
2.125000e+04 0.000000e+00 0.000000e+00 
2.187500e+04 0.000000e+00 0.000000e+00 
2.250000e+04 0.000000e+00 0.000000e+00 
2.312500e+04 0.000000e+00 0.000000e+00 
2.375000e+04 0.000000e+00 0.000000e+00 
2.437500e+04 0.000000e+00 0.000000e+00 
2.500000e+04 0.000000e+00 0.000000e+00 
2.562500e+04 0.000000e+00 0.000000e+00 
2.625000e+04 0.000000e+00 0.000000e+00 
2.687500e+04 0.000000e+00 0.000000e+00 
2.750000e+04 0.000000e+00 0.000000e+00 
2.812500e+04 0.000000e+00 0.000000e+00 
2.875000e+04 0.000000e+00 0.000000e+00 
2.937500e+04 0.000000e+00 0.000000e+00 
3.000000e+04 0.000000e+00 0.000000e+00 
3.062500e+04 0.000000e+00 0.000000e+00 
3.125000e+04 0.000000e+00 0.000000e+00 
3.187500e+04 0.000000e+00 0.000000e+00 
3.250000e+04 0.000000e+00 0.000000e+00 
3.312500e+04 0.000000e+00 0.000000e+00 
3.375000e+04 0.000000e+00 0.000000e+00 
3.437500e+04 0.000000e+00 0.000000e+00 
3.500000e+04 0.000000e+00 0.000000e+00 
3.562500e+04 0.000000e+00 0.000000e+00 
3.625000e+04 0.000000e+00 0.000000e+00 
3.687500e+04 0.000000e+00 0.000000e+00 
3.750000e+04 0.000000e+00 0.000000e+00 
3.812500e+04 0.000000e+00 0.000000e+00 
3.875000e+04 0.000000e+00 0.000000e+00 
3.937500e+04 0.000000e+00 0.000000e+00 
4.000000e+04 0.000000e+00 0.000000e+00 
4.062500e+04 0.000000e+00 0.000000e+00 
4.125000e+04 0.000000e+00 0.000000e+00 
4.187500e+04 0.000000e+00 0.000000e+00 
4.250000e+04 0.000000e+00 0.000000e+00 
4.312500e+04 0.000000e+00 0.000000e+00 
4.375000e+04 0.000000e+00 0.000000e+00 
4.437500e+04 0.000000e+00 0.000000e+00 
4.500000e+04 0.000000e+00 0.000000e+00 
4.562500e+04 0.000000e+00 0.000000e+00 
4.625000e+04 0.000000e+00 0.000000e+00 
4.687500e+04 0.000000e+00 0.000000e+00 
4.750000e+04 0.000000e+00 0.000000e+00 
4.812500e+04 0.000000e+00 0.000000e+00 
4.875000e+04 0.000000e+00 0.000000e+00 
4.937500e+04 0.000000e+00 0.000000e+00 
5.000000e+04 0.000000e+00 0.000000e+00 
5.062500e+04 0.000000e+00 0.000000e+00 
5.125000e+04 0.000000e+00 0.000000e+00 
5.187500e+04 0.000000e+00 0.000000e+00 
5.250000e+04 0.000000e+00 0.000000e+00 
5.312500e+04 0.000000e+00 0.000000e+00 
5.375000e+04 0.000000e+00 0.000000e+00 
5.437500e+04 0.000000e+00 0.000000e+00 
5.500000e+04 0.000000e+00 0.000000e+00 
5.562500e+04 0.000000e+00 0.000000e+00 
5.625000e+04 0.000000e+00 0.000000e+00 
5.687500e+04 0.000000e+00 0.000000e+00 
5.750000e+04 0.000000e+00 0.000000e+00 
5.812500e+04 0.000000e+00 0.000000e+00 
5.875000e+04 0.000000e+00 0.000000e+00 
5.937500e+04 0.000000e+00 0.000000e+00 
6.000000e+04 0.000000e+00 0.000000e+00 
6.062500e+04 0.000000e+00 0.000000e+00 
6.125000e+04 0.000000e+00 0.000000e+00 
6.187500e+04 0.000000e+00 0.000000e+00 
6.250000e+04 0.000000e+00 0.000000e+00 
6.312500e+04 0.000000e+00 0.000000e+00 
6.375000e+04 0.000000e+00 0.000000e+00 
6.437500e+04 0.000000e+00 0.000000e+00 
6.500000e+04 0.000000e+00 0.000000e+00 
6.562500e+04 0.000000e+00 0.000000e+00 
6.625000e+04 0.000000e+00 0.000000e+00 
6.687500e+04 0.000000e+00 0.000000e+00 
6.750000e+04 0.000000e+00 0.000000e+00 
6.812500e+04 0.000000e+00 0.000000e+00 
6.875000e+04 0.000000e+00 0.000000e+00 
6.937500e+04 0.000000e+00 0.000000e+00 
7.000000e+04 0.000000e+00 0.000000e+00 
7.062500e+04 0.000000e+00 0.000000e+00 
7.125000e+04 0.000000e+00 0.000000e+00 
7.187500e+04 0.000000e+00 0.000000e+00 
7.250000e+04 0.000000e+00 0.000000e+00 
7.312500e+04 0.000000e+00 0.000000e+00 
7.375000e+04 0.000000e+00 0.000000e+00 
7.437500e+04 0.000000e+00 0.000000e+00 
7.500000e+04 0.000000e+00 0.000000e+00 
7.562500e+04 0.000000e+00 0.000000e+00 
7.625000e+04 0.000000e+00 0.000000e+00 
7.687500e+04 0.000000e+00 0.000000e+00 
7.750000e+04 0.000000e+00 0.000000e+00 
7.812500e+04 0.000000e+00 0.000000e+00 
7.875000e+04 0.000000e+00 0.000000e+00 
7.937500e+04 0.000000e+00 0.000000e+00 
8.000000e+04 0.000000e+00 0.000000e+00 
8.062500e+04 0.000000e+00 0.000000e+00 
8.125000e+04 0.000000e+00 0.000000e+00 
8.187500e+04 0.000000e+00 0.000000e+00 
8.250000e+04 0.000000e+00 0.000000e+00 
8.312500e+04 0.000000e+00 0.000000e+00 
8.375000e+04 0.000000e+00 0.000000e+00 
8.437500e+04 0.000000e+00 0.000000e+00 
8.500000e+04 0.000000e+00 0.000000e+00 
8.562500e+04 0.000000e+00 0.000000e+00 
8.625000e+04 0.000000e+00 0.000000e+00 
8.687500e+04 0.000000e+00 0.000000e+00 
8.750000e+04 0.000000e+00 0.000000e+00 
8.812500e+04 0.000000e+00 0.000000e+00 
8.875000e+04 0.000000e+00 0.000000e+00 
8.937500e+04 0.000000e+00 0.000000e+00 
9.000000e+04 0.000000e+00 0.000000e+00 
9.062500e+04 0.000000e+00 0.000000e+00 
9.125000e+04 0.000000e+00 0.000000e+00 
9.187500e+04 0.000000e+00 0.000000e+00 
9.250000e+04 0.000000e+00 0.000000e+00 
9.312500e+04 0.000000e+00 0.000000e+00 
9.375000e+04 0.000000e+00 0.000000e+00 
9.437500e+04 0.000000e+00 0.000000e+00 
9.500000e+04 0.000000e+00 0.000000e+00 
9.562500e+04 0.000000e+00 0.000000e+00 
9.625000e+04 0.000000e+00 0.000000e+00 
9.687500e+04 0.000000e+00 0.000000e+00 
9.750000e+04 0.000000e+00 0.000000e+00 
9.812500e+04 0.000000e+00 0.000000e+00 
9.875000e+04 0.000000e+00 0.000000e+00 
9.937500e+04 0.000000e+00 0.000000e+00 
1.000000e+05 0.000000e+00 0.000000e+00 
1.006250e+05 0.000000e+00 0.000000e+00 
1.012500e+05 0.000000e+00 0.000000e+00 
1.018750e+05 0.000000e+00 0.000000e+00 
1.025000e+05 0.000000e+00 0.000000e+00 
1.031250e+05 0.000000e+00 0.000000e+00 
1.037500e+05 0.000000e+00 0.000000e+00 
1.043750e+05 0.000000e+00 0.000000e+00 
1.050000e+05 0.000000e+00 0.000000e+00 
1.056250e+05 0.000000e+00 0.000000e+00 
1.062500e+05 0.000000e+00 0.000000e+00 
1.068750e+05 0.000000e+00 0.000000e+00 
1.075000e+05 0.000000e+00 0.000000e+00 
1.081250e+05 0.000000e+00 0.000000e+00 
1.087500e+05 0.000000e+00 0.000000e+00 
1.093750e+05 0.000000e+00 0.000000e+00 
1.100000e+05 0.000000e+00 0.000000e+00 
1.106250e+05 0.000000e+00 0.000000e+00 
1.112500e+05 0.000000e+00 0.000000e+00 
1.118750e+05 0.000000e+00 0.000000e+00 
1.125000e+05 0.000000e+00 0.000000e+00 
1.131250e+05 0.000000e+00 0.000000e+00 
1.137500e+05 0.000000e+00 0.000000e+00 
1.143750e+05 0.000000e+00 0.000000e+00 
1.150000e+05 0.000000e+00 0.000000e+00 
1.156250e+05 0.000000e+00 0.000000e+00 
1.162500e+05 0.000000e+00 0.000000e+00 
1.168750e+05 0.000000e+00 0.000000e+00 
1.175000e+05 0.000000e+00 0.000000e+00 
1.181250e+05 0.000000e+00 0.000000e+00 
1.187500e+05 0.000000e+00 0.000000e+00 
1.193750e+05 0.000000e+00 0.000000e+00 
1.200000e+05 0.000000e+00 0.000000e+00 
1.206250e+05 0.000000e+00 0.000000e+00 
1.212500e+05 0.000000e+00 0.000000e+00 
1.218750e+05 0.000000e+00 0.000000e+00 
1.225000e+05 0.000000e+00 0.000000e+00 
1.231250e+05 0.000000e+00 0.000000e+00 
1.237500e+05 0.000000e+00 0.000000e+00 
1.243750e+05 0.000000e+00 0.000000e+00 
1.250000e+05 0.000000e+00 0.000000e+00 
0.000000e+00 5.000000e+01 0.000000e+00 
6.250000e+02 5.000000e+01 0.000000e+00 
1.250000e+03 5.000000e+01 0.000000e+00 
1.875000e+03 5.000000e+01 0.000000e+00 
2.500000e+03 5.000000e+01 0.000000e+00 
3.125000e+03 5.000000e+01 0.000000e+00 
3.750000e+03 5.000000e+01 0.000000e+00 
4.375000e+03 5.000000e+01 0.000000e+00 
5.000000e+03 5.000000e+01 0.000000e+00 
5.625000e+03 5.000000e+01 0.000000e+00 
6.250000e+03 5.000000e+01 0.000000e+00 
6.875000e+03 5.000000e+01 0.000000e+00 
7.500000e+03 5.000000e+01 0.000000e+00 
8.125000e+03 5.000000e+01 0.000000e+00 
8.750000e+03 5.000000e+01 0.000000e+00 
9.375000e+03 5.000000e+01 0.000000e+00 
1.000000e+04 5.000000e+01 0.000000e+00 
1.062500e+04 5.000000e+01 0.000000e+00 
1.125000e+04 5.000000e+01 0.000000e+00 
1.187500e+04 5.000000e+01 0.000000e+00 
1.250000e+04 5.000000e+01 0.000000e+00 
1.312500e+04 5.000000e+01 0.000000e+00 
1.375000e+04 5.000000e+01 0.000000e+00 
1.437500e+04 5.000000e+01 0.000000e+00 
1.500000e+04 5.000000e+01 0.000000e+00 
1.562500e+04 5.000000e+01 0.000000e+00 
1.625000e+04 5.000000e+01 0.000000e+00 
1.687500e+04 5.000000e+01 0.000000e+00 
1.750000e+04 5.000000e+01 0.000000e+00 
1.812500e+04 5.000000e+01 0.000000e+00 
1.875000e+04 5.000000e+01 0.000000e+00 
1.937500e+04 5.000000e+01 0.000000e+00 
2.000000e+04 5.000000e+01 0.000000e+00 
2.062500e+04 5.000000e+01 0.000000e+00 
2.125000e+04 5.000000e+01 0.000000e+00 
2.187500e+04 5.000000e+01 0.000000e+00 
2.250000e+04 5.000000e+01 0.000000e+00 
2.312500e+04 5.000000e+01 0.000000e+00 
2.375000e+04 5.000000e+01 0.000000e+00 
2.437500e+04 5.000000e+01 0.000000e+00 
2.500000e+04 5.000000e+01 0.000000e+00 
2.562500e+04 5.000000e+01 0.000000e+00 
2.625000e+04 5.000000e+01 0.000000e+00 
[...]
<CellData Scalars='scalars'>
<DataArray type='Float32' Name='div.v' Format='ascii'> 
-5.001585e-14
1.047701e-14
7.757766e-14
9.371690e-14
6.989727e-14
5.271413e-14
3.961741e-14
3.234466e-14
2.737699e-14
2.349489e-14
2.018731e-14
1.739681e-14
1.508193e-14
1.317316e-14
1.158820e-14
1.025460e-14
9.119646e-15
8.144545e-15
7.301424e-15
6.568122e-15
5.926883e-15
5.363646e-15
4.866094e-15
4.424508e-15
4.031100e-15
3.678775e-15
3.362414e-15
3.076771e-15
2.818892e-15
2.584158e-15
2.371282e-15
2.177387e-15
2.000339e-15
1.836944e-15
1.683093e-15
1.535048e-15
1.393410e-15
1.266150e-15
1.177876e-15
1.132088e-15
1.194993e-15
7.925170e-16
7.307519e-16
8.718794e-16
7.742066e-16
6.715439e-16
5.746867e-16
5.180445e-16
4.583654e-16
4.314931e-16
4.130868e-16
3.497913e-16
3.365969e-16
2.867645e-16
2.670241e-16
2.143426e-16
1.861225e-16
1.534366e-16
1.194891e-16
8.600459e-17
5.279703e-17
1.985137e-17
-1.261085e-17
-4.554333e-17
-7.858604e-17
-1.123275e-16
-1.459002e-16
-1.796045e-16
-2.060995e-16
-2.585623e-16
-2.809334e-16
-3.264547e-16
-3.471545e-16
-3.936950e-16
-4.345926e-16
-4.423852e-16
-5.114737e-16
-5.570488e-16
-6.576597e-16
-7.588656e-16
-8.638441e-16
-7.921225e-16
-6.419514e-16
-1.053595e-15
-1.021709e-15
-1.170679e-15
-1.660040e-15
-2.432650e-15
-3.016170e-15
-2.149245e-15
1.567363e-15
9.289696e-15
1.454202e-14
1.024191e-14
-5.763175e-14
-1.056835e-13
-3.117061e-13
4.130258e-13
-1.723649e-12
1.375553e-11
9.471673e-15
-4.739396e-14
8.633254e-15
2.709276e-14
2.724554e-14
2.348349e-14
1.902263e-14
1.610957e-14
1.409057e-14
1.239133e-14
1.084322e-14
9.461204e-15
8.272875e-15
7.270526e-15
6.426248e-15
5.708647e-15
5.092910e-15
4.560257e-15
4.096976e-15
3.692073e-15
3.336624e-15
3.023353e-15
2.745888e-15
2.499046e-15
2.278696e-15
2.081022e-15
1.903226e-15
1.742522e-15
1.597317e-15
1.464996e-15
1.344859e-15
1.235415e-15
1.135155e-15
1.042125e-15
9.539574e-16
8.692569e-16
7.898363e-16
7.232959e-16
6.812124e-16
6.715157e-16
6.815062e-16
4.205870e-16
3.705163e-16
4.821060e-16
4.518909e-16
3.967224e-16
3.391110e-16
2.997079e-16
2.618947e-16
2.458256e-16
2.338025e-16
1.990489e-16
1.900238e-16
1.646991e-16
1.518191e-16
1.225888e-16
1.051625e-16
8.749987e-17
6.827611e-17
4.926447e-17
3.034425e-17
1.137369e-17
-7.233933e-18
-2.606499e-17
-4.497143e-17
-6.416483e-17
-8.329441e-17
-1.015852e-16
-1.176437e-16
-1.470295e-16
-1.612525e-16
-1.850311e-16
-1.966596e-16
-2.235757e-16
-2.466920e-16
-2.533188e-16
-2.945929e-16
-3.289119e-16
-3.886083e-16
-4.438736e-16
-4.844129e-16
-4.002382e-16
-3.231272e-16
-5.851221e-16
-6.291136e-16
-7.438152e-16
-1.055838e-15
-1.465609e-15
-1.590345e-15
-6.557319e-16
2.079086e-15
6.439761e-15
8.098600e-15
-1.957774e-15
-4.448509e-14
-8.009256e-14
-1.236844e-13
1.709797e-13
-8.583266e-13
7.702462e-12
6.651818e-14
-5.754096e-14
3.698294e-15
4.464315e-15
-2.463783e-15
-5.371441e-15
-6.625892e-15
-6.492032e-15
-5.800078e-15
-5.050689e-15
-4.420212e-15
-3.912169e-15
-3.489868e-15
-3.125180e-15
-2.805083e-15
-2.523139e-15
-2.275626e-15
-2.057954e-15
-1.866246e-15
-1.696385e-15
-1.545560e-15
-1.410507e-15
-1.289560e-15
-1.180717e-15
-1.082463e-15
-9.934634e-16
-9.127418e-16
-8.390883e-16
-7.719202e-16
-7.103401e-16
-6.535022e-16
-6.011195e-16
-5.530326e-16
-5.093348e-16
-4.703873e-16
-4.356179e-16
-4.021251e-16
-3.643784e-16
-3.171502e-16
-2.582154e-16
-2.184913e-16
-3.172505e-16
-3.061416e-16
-1.971292e-16
-1.579601e-16
-1.497409e-16
-1.517467e-16
-1.504283e-16
-1.478035e-16
-1.340234e-16
-1.182105e-16
-1.130818e-16
-9.659755e-17
-8.709786e-17
-7.318976e-17
-6.763497e-17
-5.661140e-17
-4.571321e-17
-3.535760e-17
-2.545132e-17
-1.571385e-17
-5.989371e-18
3.849197e-18
1.362305e-17
2.341074e-17
3.321267e-17
4.325215e-17
5.418856e-17
6.552544e-17
7.130276e-17
8.406701e-17
9.436591e-17
1.097847e-16
1.183757e-16
1.290241e-16
1.468691e-16
1.481760e-16
1.513873e-16
1.473219e-16
1.537709e-16
1.848130e-16
2.876036e-16
3.627654e-16
2.598842e-16
2.453907e-16
2.167080e-16
1.118725e-16
3.183066e-17
2.414561e-16
1.127414e-15
2.889084e-15
4.763699e-15
3.862919e-15
-6.328430e-15
-3.005056e-14
-4.701992e-14
-4.203099e-14
4.518841e-15
-4.041196e-13
3.220371e-12
8.772591e-14
-5.730861e-14
1.240100e-14
1.927651e-14
1.623935e-14
1.349139e-14
1.078596e-14
9.096118e-15
7.931501e-15
6.996280e-15
6.167377e-15
5.430339e-15
4.788401e-15
4.237785e-15
3.766670e-15
3.361582e-15
3.010771e-15
2.705156e-15
2.437594e-15
2.202479e-15
1.995022e-15
1.811285e-15
1.647915e-15
1.502048e-15
1.371463e-15
1.253946e-15
1.147997e-15
1.052166e-15
9.649502e-16
8.858698e-16
8.137746e-16
7.478428e-16
6.873237e-16
6.311563e-16
5.783545e-16
5.284713e-16
4.823389e-16
4.433076e-16
4.144230e-16
3.997841e-16
3.742284e-16
2.852775e-16
2.534813e-16
2.738329e-16
2.627660e-16
2.350407e-16
2.067746e-16
1.837070e-16
1.642126e-16
1.516449e-16
1.405786e-16
1.249718e-16
1.143911e-16
1.017229e-16
9.060491e-17
7.631956e-17
6.447780e-17
5.338456e-17
4.159698e-17
3.012147e-17
1.853147e-17
6.965775e-18
-4.532481e-18
-1.594143e-17
-2.756942e-17
-3.915860e-17
-5.082751e-17
-6.204013e-17
-7.352869e-17
-8.777211e-17
-9.925603e-17
-1.116203e-16
-1.222490e-16
-1.364979e-16
-1.496380e-16
-1.603987e-16
-1.798963e-16
-2.018365e-16
-2.303162e-16
-2.585881e-16
-2.744598e-16
-2.537228e-16
-2.504004e-16
-3.349324e-16
-3.858979e-16
-4.545458e-16
-5.911290e-16
-7.432182e-16
-7.356782e-16
-2.873420e-16
8.669290e-16
2.280005e-15
2.385142e-15
-4.696571e-15
-1.870838e-14
-4.198425e-14
-3.541864e-14
-1.573541e-13
-3.681925e-14
7.137323e-13
7.775058e-14
-6.389540e-14
4.565255e-15
8.730742e-15
4.657654e-15
2.495351e-15
7.323610e-16
1.185097e-16
-3.466627e-17
-2.619476e-17
-2.518528e-18
8.199051e-18
9.655233e-18
8.868022e-18
8.412530e-18
8.134259e-18
7.403506e-18
6.057917e-18
4.307942e-18
2.425283e-18
6.033768e-19
-9.437230e-19
-2.275251e-18
-3.372295e-18
-4.156181e-18
-4.779304e-18
-5.229630e-18
-5.477440e-18
-5.713787e-18
-5.585137e-18
-5.462792e-18
-5.099971e-18
-4.877020e-18
-5.048236e-18
-5.841170e-18
-7.102817e-18
-7.578074e-18
-4.255516e-18
4.643811e-18
2.067522e-17
1.841857e-17
-2.547413e-17
-3.046711e-17
2.311405e-18
1.713733e-17
1.317448e-17
5.138332e-18
-1.533958e-18
-6.056476e-18
-5.605161e-18
-4.077122e-18
-5.035845e-18
-3.413574e-18
-2.520776e-18
-1.601554e-18
-2.624406e-18
-2.427906e-18
-1.525258e-18
-1.210994e-18
-7.875673e-19
-5.719252e-19
-1.167201e-19
4.295531e-20
5.669994e-19
7.695074e-19
1.011751e-18
1.389251e-18
2.259456e-18
2.629196e-18
1.599399e-18
2.276772e-18
3.142798e-18
4.907769e-18
4.606847e-18
5.086081e-18
6.437860e-18
2.292355e-18
-4.002767e-18
-1.270055e-17
-1.769320e-17
-6.897629e-18
2.937449e-17
4.705643e-17
3.433390e-18
-2.651115e-17
-6.183579e-17
-1.299387e-16
-1.741248e-16
-4.593650e-17
4.322392e-16
1.360174e-15
2.074219e-15
1.398065e-15
-5.795832e-15
-1.396184e-14
-3.560929e-14
-9.165050e-15
-2.152519e-13
2.976160e-13
-6.472560e-13
5.706660e-14
-5.325605e-14
6.156735e-15
1.121164e-14
7.514210e-15
5.234276e-15
3.140022e-15
2.200215e-15
1.671297e-15
1.341394e-15
1.100321e-15
9.212072e-16
7.882399e-16
6.883838e-16
6.104588e-16
5.465801e-16
4.919341e-16
4.439970e-16
4.014138e-16
3.633845e-16
3.294048e-16
2.989681e-16
2.716199e-16
2.470206e-16
2.249477e-16
2.049825e-16
1.869648e-16
1.707337e-16
1.559609e-16
1.428909e-16
1.306676e-16
1.198670e-16
1.098124e-16
1.003756e-16
9.114972e-17
8.237649e-17
7.473218e-17
7.064796e-17
7.105519e-17
7.757559e-17
6.742702e-17
3.570650e-17
2.815296e-17
4.411753e-17
5.293112e-17
4.632053e-17
3.720362e-17
2.908740e-17
2.329691e-17
2.109570e-17
1.967228e-17
1.733393e-17
1.590185e-17
1.492757e-17
1.316071e-17
1.072039e-17
8.807653e-18
7.518896e-18
5.892422e-18
4.296796e-18
2.649774e-18
1.019564e-18
-6.475720e-19
-2.207384e-18
-4.031275e-18
-5.480424e-18
-7.291356e-18
-8.347765e-18
-1.038705e-17
-1.265997e-17
-1.452424e-17
-1.561969e-17
-1.679817e-17
-1.890419e-17
-2.064467e-17
-2.261180e-17
-2.788104e-17
-3.579491e-17
-4.528563e-17
-5.260648e-17
-4.686859e-17
-2.585320e-17
-1.993677e-17
-5.060758e-17
-8.178740e-17
-1.161134e-16
-1.735055e-16
-2.088828e-16
-1.054798e-16
2.626564e-16
9.733385e-16
1.411503e-15
8.649325e-16
-5.298484e-15
-9.395468e-15
-3.332789e-14
-2.200142e-15
-2.587038e-13
5.216192e-13
-1.476726e-12
2.734675e-14
-3.696918e-14
4.629117e-15
1.032879e-14
6.604287e-15
4.444961e-15
2.546312e-15
1.806068e-15
1.379740e-15
1.082303e-15
8.283595e-16
6.246381e-16
4.752149e-16
3.743659e-16
3.092070e-16
2.671649e-16
2.384903e-16
2.170259e-16
1.997095e-16
1.846803e-16
1.712826e-16
1.590724e-16
1.479608e-16
1.376661e-16
1.282221e-16
1.194384e-16
1.112545e-16
1.036869e-16
9.655720e-17
9.001286e-17
8.369420e-17
7.790553e-17
7.228881e-17
6.681793e-17
6.128063e-17
5.590343e-17
5.128878e-17
4.932472e-17
5.044841e-17
5.623518e-17
4.595108e-17
2.688652e-17
2.208827e-17
3.052536e-17
3.907271e-17
3.426714e-17
2.744123e-17
2.093165e-17
1.655758e-17
1.470169e-17
1.347100e-17
1.234476e-17
1.084579e-17
1.053635e-17
9.012022e-18
7.525110e-18
6.077154e-18
5.238242e-18
4.188466e-18
3.061093e-18
1.822130e-18
7.177519e-19
-4.531383e-19
-1.552506e-18
-2.723977e-18
-3.908005e-18
-4.975384e-18
-5.819492e-18
-7.307325e-18
-8.824261e-18
-1.020917e-17
-1.076280e-17
-1.185378e-17
-1.307122e-17
-1.416931e-17
-1.622172e-17
-1.989872e-17
-2.641903e-17
-3.346303e-17
-3.895379e-17
-3.286651e-17
-1.838188e-17
-1.638940e-17
-3.422047e-17
-6.165110e-17
-8.886844e-17
-1.298160e-16
-1.470369e-16
-4.835856e-17
2.491088e-16
7.927170e-16
9.992750e-16
4.924380e-16
-4.808600e-15
-6.005695e-15
-3.047779e-14
4.125868e-15
-2.722446e-13
6.826842e-13
-1.958912e-12
-3.040263e-15
-1.610089e-14
2.862929e-15
1.026214e-14
6.437925e-15
4.275335e-15
2.475479e-15
1.818848e-15
1.446181e-15
1.190577e-15
9.557959e-16
7.457090e-16
5.674734e-16
4.252996e-16
3.173804e-16
2.389946e-16
1.841849e-16
1.468279e-16
1.216975e-16
1.042650e-16
9.145218e-17
8.118740e-17
7.229630e-17
6.423865e-17
5.666817e-17
4.956305e-17
4.298833e-17
3.706510e-17
3.163062e-17
2.699103e-17
2.288151e-17
1.943461e-17
1.638281e-17
1.367807e-17
1.107609e-17
8.784203e-18
7.274208e-18
7.898576e-18
1.054114e-17
1.697467e-17
8.606329e-18
1.834666e-19
-6.700284e-19
3.454000e-18
1.231787e-17
9.619812e-18
5.587613e-18
1.563008e-18
-7.355471e-19
-1.238528e-18
-1.322575e-18
-6.837846e-19
-1.277953e-18
-2.466330e-19
-6.746076e-19
-6.093432e-19
-8.117362e-19
-4.749753e-19
-2.382970e-19
-1.145748e-19
-2.132846e-19
-9.060421e-21
-1.839490e-19
1.756590e-19
7.350891e-20
3.594578e-19
4.307884e-19
8.118451e-19
4.666037e-19
5.194760e-19
2.788172e-19
1.107743e-18
1.077969e-18
1.477204e-18
1.631386e-18
6.755775e-19
-9.076667e-19
-5.127277e-18
-9.245265e-18
-1.250809e-17
-5.615838e-18
4.725903e-18
5.830285e-18
-9.101477e-19
-2.269338e-17
-4.213286e-17
-7.004479e-17
-7.620112e-17
1.050218e-17
2.446740e-16
6.605190e-16
7.301274e-16
3.240609e-16
-4.105656e-15
-3.398437e-15
-2.772613e-14
6.715588e-15
-2.685287e-13
7.743622e-13
-2.191057e-12
-2.897983e-14
6.047654e-15
8.805366e-16
1.044608e-14
6.345869e-15
4.148649e-15
2.430434e-15
1.800215e-15
1.438656e-15
1.200963e-15
9.936878e-16
8.168554e-16
6.682947e-16
5.449641e-16
4.419798e-16
3.562253e-16
2.862483e-16
2.312945e-16
1.909099e-16
1.634196e-16
1.468540e-16
1.387379e-16
1.365765e-16
1.381199e-16
1.413829e-16
1.451411e-16
1.482431e-16
1.504376e-16
1.510799e-16
1.503782e-16
1.481994e-16
1.448443e-16
1.403556e-16
1.349302e-16
1.286270e-16
1.218559e-16
1.152282e-16
1.098027e-16
1.053881e-16
1.040965e-16
8.979768e-17
8.094020e-17
7.563909e-17
6.983126e-17
7.234503e-17
6.546724e-17
5.816019e-17
5.105610e-17
4.548399e-17
4.133211e-17
3.747659e-17
3.475022e-17
3.051595e-17
2.806866e-17
2.417189e-17
2.103407e-17
1.754065e-17
1.450411e-17
1.141689e-17
8.323229e-18
5.066222e-18
1.911754e-18
-1.230219e-18
-4.520725e-18
-7.613230e-18
-1.078497e-17
-1.392891e-17
-1.688532e-17
-2.064178e-17
-2.357539e-17
-2.728331e-17
-2.992207e-17
-3.375112e-17
-3.671364e-17
-4.006895e-17
-4.487544e-17
-4.958436e-17
-5.691045e-17
-6.425890e-17
-7.152800e-17
-7.039565e-17
-7.006512e-17
-7.630107e-17
-8.309987e-17
-1.074016e-16
-1.287339e-16
-1.552972e-16
-1.637052e-16
-9.843647e-17
7.769802e-17
3.928220e-16
3.728466e-16
4.033055e-17
-3.599146e-15
-1.753615e-15
-2.506068e-14
6.839756e-15
-2.513895e-13
8.020664e-13
-2.216247e-12
-5.198552e-14
2.391642e-14
-2.962506e-15
9.315437e-15
5.270837e-15
3.299503e-15
1.818778e-15
1.297293e-15
1.009087e-15
8.262906e-16
6.663533e-16
5.319721e-16
4.210489e-16
3.300232e-16
2.521754e-16
1.818256e-16
1.151665e-16
5.066202e-17
-1.179819e-17
-7.157501e-17
-1.273330e-16
-1.776552e-16
-2.214466e-16
-2.581778e-16
-2.872898e-16
-3.089052e-16
-3.235685e-16
-3.316932e-16
-3.345041e-16
-3.324682e-16
-3.266346e-16
-3.176626e-16
-3.064122e-16
-2.934465e-16
-2.793656e-16
-2.643846e-16
-2.485461e-16
-2.315125e-16
-2.139436e-16
-1.944982e-16
-1.865947e-16
-1.716961e-16
-1.563844e-16
-1.472707e-16
-1.295699e-16
-1.214422e-16
-1.146160e-16
-1.083125e-16
-1.012973e-16
-9.356537e-17
-8.585988e-17
-7.727057e-17
-7.029743e-17
-6.195943e-17
-5.498969e-17
-4.745081e-17
-4.032946e-17
-3.296094e-17
-2.569612e-17
-1.852930e-17
-1.161180e-17
-4.278310e-18
2.820124e-18
9.937815e-18
1.721984e-17
2.422782e-17
3.139314e-17
3.870539e-17
4.560367e-17
5.326199e-17
6.037187e-17
6.846609e-17
7.579748e-17
8.410293e-17
9.222589e-17
9.930401e-17
1.069654e-16
1.128045e-16
1.195576e-16
1.271308e-16
1.433937e-16
1.579257e-16
1.703128e-16
1.865267e-16
1.866017e-16
1.899935e-16
1.912071e-16
2.075341e-16
2.814862e-16
4.407406e-16
7.147889e-16
6.878853e-16
4.241309e-16
-2.546021e-15
-1.238120e-16
-2.169533e-14
6.065263e-15
-2.236658e-13
7.796236e-13
-2.070156e-12
-6.501504e-14
4.252748e-14
-3.049972e-15
1.092479e-14
6.426721e-15
4.187328e-15
2.602236e-15
1.925999e-15
1.523270e-15
1.250698e-15
1.028622e-15
8.537423e-16
7.205246e-16
6.229351e-16
5.529160e-16
5.034337e-16
4.689932e-16
4.457553e-16
4.302672e-16
4.198135e-16
4.124517e-16
4.062959e-16
4.000552e-16
3.927478e-16
3.841425e-16
3.738754e-16
3.620679e-16
3.487558e-16
3.343123e-16
3.189633e-16
3.029746e-16
2.866911e-16
2.702136e-16
2.537806e-16
2.374624e-16
2.214855e-16
2.061390e-16
1.920352e-16
1.791453e-16
1.689151e-16
1.523629e-16
1.409434e-16
1.325205e-16
1.182725e-16
1.142358e-16
1.031679e-16
9.302588e-17
8.411044e-17
7.628813e-17
6.967981e-17
6.372059e-17
5.806978e-17
5.189174e-17
4.654064e-17
4.074458e-17
3.509268e-17
2.967051e-17
2.434242e-17
1.908392e-17
1.371991e-17
8.426729e-18
3.168604e-18
-1.996070e-18
-7.348647e-18
-1.256571e-17
-1.788281e-17
-2.317053e-17
-2.844807e-17
-3.416097e-17
-3.975375e-17
-4.526046e-17
-5.069979e-17
-5.665347e-17
-6.201518e-17
-6.797464e-17
-7.487527e-17
-8.231955e-17
-9.114263e-17
-1.012123e-16
-1.124864e-16
-1.171995e-16
-1.268987e-16
-1.360496e-16
-1.469201e-16
-1.678559e-16
-1.914350e-16
-2.210269e-16
-2.432951e-16
-2.183072e-16
-1.105672e-16
1.249869e-16
1.192574e-16
-3.835678e-17
-2.551099e-15
-3.107248e-16
-2.083077e-14
4.954024e-15
-2.056088e-13
7.626735e-13
-1.919394e-12
-8.116121e-14
5.544089e-14
-6.079191e-15
1.026809e-14
5.856001e-15
3.692715e-15
2.258458e-15
1.616707e-15
1.251034e-15
1.000896e-15
7.968915e-16
6.322841e-16
5.020243e-16
4.005975e-16
3.206296e-16
2.562243e-16
2.033629e-16
1.592553e-16
1.221424e-16
9.086210e-17
6.454382e-17
4.244712e-17
2.415271e-17
9.211980e-18
-2.921517e-18
-1.249463e-17
-1.986477e-17
-2.538275e-17
-2.933191e-17
-3.195651e-17
-3.350100e-17
-3.414768e-17
-3.416236e-17
-3.362579e-17
-3.273918e-17
-3.152900e-17
-2.992220e-17
-2.759487e-17
-2.457882e-17
-2.015077e-17
-1.987324e-17
-1.851691e-17
-1.333711e-17
-1.653130e-17
-1.021231e-17
-1.231730e-17
-1.399404e-17
-1.451550e-17
-1.483688e-17
-1.400628e-17
-1.228914e-17
-1.132559e-17
-1.017643e-17
-9.162414e-18
-7.914883e-18
-7.344128e-18
-6.035116e-18
-4.981357e-18
-3.861320e-18
-2.803780e-18
-1.749233e-18
-6.364976e-19
4.298479e-19
1.483076e-18
2.578477e-18
3.603900e-18
4.701743e-18
5.804853e-18
6.729289e-18
7.432511e-18
8.904203e-18
9.948326e-18
1.110230e-17
1.270835e-17
1.391881e-17
1.476555e-17
1.448197e-17
1.412007e-17
1.198709e-17
9.867626e-18
1.534151e-17
1.596265e-17
2.140171e-17
2.098975e-17
1.787492e-17
9.169782e-18
-3.653846e-18
-9.284238e-18
3.088051e-17
1.507898e-16
4.021182e-16
4.112468e-16
3.441961e-16
-2.042789e-15
7.377347e-17
-1.878290e-14
7.956002e-15
-1.932025e-13
7.848270e-13
-1.884878e-12
-9.132079e-14
6.807347e-14
-7.574647e-15
1.075901e-14
6.045257e-15
3.880704e-15
2.465209e-15
1.768975e-15
1.370597e-15
1.093811e-15
8.757758e-16
7.030489e-16
5.688921e-16
4.662637e-16
3.872429e-16
3.255567e-16
2.767637e-16
2.376035e-16
2.058172e-16
1.798583e-16
1.584121e-16
1.404073e-16
1.252093e-16
1.121563e-16
1.007908e-16
9.086477e-17
8.204459e-17
7.412859e-17
6.703666e-17
6.070468e-17
5.501013e-17
4.989483e-17
4.523326e-17
4.104652e-17
3.724854e-17
3.383132e-17
3.088479e-17
2.862697e-17
2.711814e-17
2.690569e-17
2.507227e-17
2.281468e-17
2.507874e-17
1.791284e-17
2.138208e-17
1.622638e-17
1.234324e-17
1.014566e-17
7.781964e-18
6.745949e-18
6.952838e-18
5.753513e-18
5.591735e-18
4.568904e-18
4.512600e-18
3.152284e-18
3.113067e-18
2.506092e-18
2.019638e-18
1.443768e-18
8.843542e-19
3.867757e-19
-2.411401e-19
-7.746525e-19
-1.296429e-18
-1.900452e-18
-2.422110e-18
-2.993642e-18
-3.487212e-18
-4.673251e-18
-4.523255e-18
-5.347615e-18
-5.689885e-18
-5.800351e-18
-6.528260e-18
-7.328466e-18
-9.848356e-18
-1.165013e-17
-1.608091e-17
-2.114960e-17
-1.843326e-17
-2.205084e-17
-1.871202e-17
-2.392714e-17
-2.752776e-17
-3.950487e-17
-5.613650e-17
-6.842173e-17
-3.968213e-17
6.111331e-17
3.006671e-16
3.145723e-16
3.717786e-16
-1.615977e-15
-2.312154e-16
-1.623718e-14
9.686932e-15
-1.809448e-13
7.855987e-13
-1.812903e-12
-9.972637e-14
7.792643e-14
-9.330722e-15
1.094713e-14
5.870945e-15
3.876191e-15
2.498408e-15
1.784952e-15
1.372217e-15
1.084657e-15
8.632142e-16
6.891241e-16
5.543940e-16
4.508367e-16
3.706430e-16
3.076029e-16
2.573266e-16
2.167097e-16
1.835645e-16
1.563590e-16
1.338954e-16
1.151817e-16
9.949392e-17
8.633141e-17
7.512384e-17
6.564369e-17
5.751745e-17
5.046185e-17
4.438880e-17
3.910961e-17
3.448524e-17
3.046568e-17
2.690581e-17
2.378977e-17
2.107603e-17
1.873739e-17
1.681455e-17
1.541124e-17
1.457619e-17
1.466792e-17
1.481069e-17
1.407242e-17
1.679309e-17
9.610024e-18
1.375249e-17
8.452057e-18
5.116933e-18
3.878956e-18
2.223955e-18
1.997026e-18
3.210983e-18
1.971893e-18
2.526327e-18
1.252847e-18
1.729719e-18
2.060452e-19
6.562736e-19
2.619185e-19
1.774185e-19
3.259974e-20
-1.405318e-21
2.408254e-20
9.487024e-21
-3.656970e-20
-6.991028e-20
-1.300939e-19
-2.556120e-19
-5.931474e-19
-6.852489e-19
-1.960667e-18
-1.308648e-18
-2.195346e-18
-2.067330e-18
-1.850645e-18
-2.044890e-18
-1.767664e-18
-3.905683e-18
-4.537484e-18
-8.501581e-18
-1.350342e-17
-1.047819e-17
-1.405309e-17
-9.852412e-18
-1.478681e-17
-1.473339e-17
-2.509395e-17
-3.980409e-17
-5.235163e-17
-2.973016e-17
5.823812e-17
2.719669e-16
3.339267e-16
3.234067e-16
-6.602344e-16
-1.016685e-15
-1.260386e-14
1.104190e-14
-1.660130e-13
7.653941e-13
-1.691486e-12
-1.058147e-13
8.576885e-14
-1.073548e-14
1.123030e-14
5.651135e-15
3.935934e-15
2.557204e-15
1.831536e-15
1.396059e-15
1.096026e-15
8.695750e-16
6.936239e-16
5.581862e-16
4.541337e-16
3.736581e-16
3.104941e-16
2.602964e-16
2.199477e-16
1.871973e-16
1.603864e-16
1.383774e-16
1.200451e-16
1.047518e-16
9.193179e-17
8.102517e-17
7.175163e-17
6.375305e-17
5.682512e-17
5.079320e-17
4.547567e-17
4.077369e-17
3.660480e-17
3.282347e-17
2.944793e-17
2.642499e-17
2.376737e-17
2.147587e-17
1.956916e-17
1.806334e-17
1.716463e-17
1.759948e-17
1.822305e-17
1.906688e-17
1.176144e-17
1.537404e-17
9.441660e-18
6.428686e-18
5.294121e-18
2.964292e-18
1.905548e-18
2.861413e-18
1.152662e-18
2.767820e-18
1.495713e-18
3.192564e-18
1.678449e-18
2.991108e-18
2.671646e-18
2.478176e-18
1.907902e-18
1.244660e-18
4.871324e-19
-3.180588e-19
-1.094776e-18
-1.758287e-18
-2.353429e-18
-2.654723e-18
-3.012250e-18
-2.385460e-18
-3.576392e-18
-1.822850e-18
-2.389078e-18
-1.484741e-18
-1.088624e-18
-1.923031e-18
-2.145815e-18
-5.401780e-18
-5.744727e-18
-9.692721e-18
-1.493079e-17
-1.286867e-17
-1.641892e-17
-1.343979e-17
-1.859652e-17
-1.621077e-17
-2.609193e-17
-3.986816e-17