<VTKFile type='UnstructuredGrid' version='0.1' byte_order='BigEndian'> 
<UnstructuredGrid> 
<Piece NumberOfPoints='  5838 ' NumberOfCells='  5560 '> 
<Points> 
<DataArray type='Float32' NumberOfComponents='3' Format='ascii'> 
  1.220000   0.000000   0.000000 
  1.219688   0.027571   0.000000 
  1.218754   0.055129   0.000000 
  1.217197   0.082658   0.000000 
  1.215018   0.110145   0.000000 
  1.212218   0.137575   0.000000 
  1.208800   0.164936   0.000000 
  1.204763   0.192212   0.000000 
  1.200112   0.219390   0.000000 
  1.194847   0.246455   0.000000 
  1.188972   0.273395   0.000000 
  1.182490   0.300196   0.000000 
  1.175404   0.326843   0.000000 
  1.167717   0.353323   0.000000 
  1.159434   0.379622   0.000000 
  1.150559   0.405728   0.000000 
  1.141095   0.431626   0.000000 
  1.131049   0.457304   0.000000 
  1.120426   0.482748   0.000000 
  1.109230   0.507946   0.000000 
  1.097467   0.532884   0.000000 
  1.085144   0.557550   0.000000 
  1.072267   0.581932   0.000000 
  1.058841   0.606016   0.000000 
  1.044875   0.629790   0.000000 
  1.030375   0.653243   0.000000 
  1.015349   0.676362   0.000000 
  0.999805   0.699136   0.000000 
  0.983749   0.721552   0.000000 
  0.967191   0.743600   0.000000 
  0.950139   0.765268   0.000000 
  0.932602   0.786545   0.000000 
  0.914588   0.807421   0.000000 
  0.896107   0.827884   0.000000 
  0.877169   0.847924   0.000000 
  0.857782   0.867531   0.000000 
  0.837957   0.886695   0.000000 
  0.817704   0.905406   0.000000 
  0.797034   0.923654   0.000000 
  0.775956   0.941431   0.000000 
  0.754482   0.958726   0.000000 
  0.732623   0.975532   0.000000 
  0.710389   0.991840   0.000000 
  0.687793   1.007641   0.000000 
  0.664845   1.022928   0.000000 
  0.641558   1.037692   0.000000 
  0.617942   1.051925   0.000000 
  0.594012   1.065622   0.000000 
  0.569777   1.078774   0.000000 
  0.545252   1.091375   0.000000 
  0.520449   1.103419   0.000000 
  0.495379   1.114899   0.000000 
  0.470056   1.125810   0.000000 
  0.444494   1.136145   0.000000 
  0.418704   1.145900   0.000000 
  0.392700   1.155070   0.000000 
  0.366496   1.163650   0.000000 
  0.340104   1.171635   0.000000 
  0.313539   1.179022   0.000000 
  0.286814   1.185807   0.000000 
  0.259942   1.191986   0.000000 
  0.232937   1.197556   0.000000 
  0.205814   1.202514   0.000000 
  0.178585   1.206858   0.000000 
  0.151265   1.210586   0.000000 
  0.123868   1.213696   0.000000 
  0.096407   1.216185   0.000000 
  0.068898   1.218053   0.000000 
  0.041353   1.219299   0.000000 
  0.013787   1.219922   0.000000 
 -0.013787   1.219922   0.000000 
 -0.041353   1.219299   0.000000 
 -0.068898   1.218053   0.000000 
 -0.096407   1.216185   0.000000 
 -0.123868   1.213696   0.000000 
 -0.151265   1.210586   0.000000 
 -0.178585   1.206858   0.000000 
 -0.205814   1.202514   0.000000 
 -0.232937   1.197556   0.000000 
 -0.259942   1.191986   0.000000 
 -0.286814   1.185807   0.000000 
 -0.313539   1.179022   0.000000 
 -0.340104   1.171635   0.000000 
 -0.366496   1.163650   0.000000 
 -0.392700   1.155070   0.000000 
 -0.418704   1.145900   0.000000 
 -0.444494   1.136145   0.000000 
 -0.470056   1.125810   0.000000 
 -0.495379   1.114899   0.000000 
 -0.520449   1.103419   0.000000 
 -0.545252   1.091375   0.000000 
 -0.569777   1.078774   0.000000 
 -0.594012   1.065622   0.000000 
 -0.617942   1.051925   0.000000 
 -0.641558   1.037692   0.000000 
 -0.664845   1.022928   0.000000 
 -0.687793   1.007641   0.000000 
 -0.710389   0.991840   0.000000 
 -0.732623   0.975532   0.000000 
 -0.754482   0.958726   0.000000 
 -0.775956   0.941431   0.000000 
 -0.797034   0.923654   0.000000 
 -0.817704   0.905406   0.000000 
 -0.837957   0.886695   0.000000 
 -0.857782   0.867531   0.000000 
 -0.877169   0.847924   0.000000 
 -0.896107   0.827884   0.000000 
 -0.914588   0.807421   0.000000 
 -0.932602   0.786545   0.000000 
 -0.950139   0.765268   0.000000 
 -0.967191   0.743600   0.000000 
 -0.983749   0.721552   0.000000 
 -0.999805   0.699136   0.000000 
 -1.015349   0.676362   0.000000 
 -1.030375   0.653243   0.000000 
 -1.044875   0.629790   0.000000 
 -1.058841   0.606016   0.000000 
 -1.072267   0.581932   0.000000 
 -1.085144   0.557550   0.000000 
 -1.097467   0.532884   0.000000 
 -1.109230   0.507946   0.000000 
 -1.120426   0.482748   0.000000 
 -1.131049   0.457304   0.000000 
 -1.141095   0.431626   0.000000 
 -1.150559   0.405728   0.000000 
 -1.159434   0.379622   0.000000 
 -1.167717   0.353323   0.000000 
 -1.175404   0.326843   0.000000 
 -1.182490   0.300196   0.000000 
 -1.188972   0.273395   0.000000 
 -1.194847   0.246455   0.000000 
 -1.200112   0.219390   0.000000 
 -1.204763   0.192212   0.000000 
 -1.208800   0.164936   0.000000 
 -1.212218   0.137575   0.000000 
 -1.215018   0.110145   0.000000 
 -1.217197   0.082658   0.000000 
 -1.218754   0.055129   0.000000 
 -1.219688   0.027571   0.000000 
 -1.220000   0.000000   0.000000 
 -1.219688  -0.027571   0.000000 
 -1.218754  -0.055129   0.000000 
 -1.217197  -0.082658   0.000000 
 -1.215018  -0.110145   0.000000 
 -1.212218  -0.137575   0.000000 
 -1.208800  -0.164936   0.000000 
 -1.204763  -0.192212   0.000000 
 -1.200112  -0.219390   0.000000 
 -1.194847  -0.246455   0.000000 
 -1.188972  -0.273395   0.000000 
 -1.182490  -0.300196   0.000000 
 -1.175404  -0.326843   0.000000 
 -1.167717  -0.353323   0.000000 
 -1.159434  -0.379622   0.000000 
 -1.150559  -0.405728   0.000000 
 -1.141095  -0.431626   0.000000 
 -1.131049  -0.457304   0.000000 
 -1.120426  -0.482748   0.000000 
 -1.109230  -0.507946   0.000000 
 -1.097467  -0.532884   0.000000 
 -1.085144  -0.557550   0.000000 
 -1.072267  -0.581932   0.000000 
 -1.058841  -0.606016   0.000000 
 -1.044875  -0.629790   0.000000 
 -1.030375  -0.653243   0.000000 
 -1.015349  -0.676362   0.000000 
 -0.999805  -0.699136   0.000000 
 -0.983749  -0.721552   0.000000 
 -0.967191  -0.743600   0.000000 
 -0.950139  -0.765268   0.000000 
 -0.932602  -0.786545   0.000000 
 -0.914588  -0.807421   0.000000 
 -0.896107  -0.827884   0.000000 
 -0.877169  -0.847924   0.000000 
 -0.857782  -0.867531   0.000000 
 -0.837957  -0.886695   0.000000 
 -0.817704  -0.905406   0.000000 
 -0.797034  -0.923654   0.000000 
 -0.775956  -0.941431   0.000000 
 -0.754482  -0.958726   0.000000 
 -0.732623  -0.975532   0.000000 
 -0.710389  -0.991840   0.000000 
 -0.687793  -1.007641   0.000000 
 -0.664845  -1.022928   0.000000 
 -0.641558  -1.037692   0.000000 
 -0.617942  -1.051925   0.000000 
 -0.594012  -1.065622   0.000000 
 -0.569777  -1.078774   0.000000 
 -0.545252  -1.091375   0.000000 
 -0.520449  -1.103419   0.000000 
 -0.495379  -1.114899   0.000000 
 -0.470056  -1.125810   0.000000 
 -0.444494  -1.136145   0.000000 
 -0.418704  -1.145900   0.000000 
 -0.392700  -1.155070   0.000000 
 -0.366496  -1.163650   0.000000 
 -0.340104  -1.171635   0.000000 
 -0.313539  -1.179022   0.000000 
 -0.286814  -1.185807   0.000000 
 -0.259942  -1.191986   0.000000 
 -0.232937  -1.197556   0.000000 
 -0.205814  -1.202514   0.000000 
 -0.178585  -1.206858   0.000000 
 -0.151265  -1.210586   0.000000 
 -0.123868  -1.213696   0.000000 
 -0.096407  -1.216185   0.000000 
 -0.068898  -1.218053   0.000000 
 -0.041353  -1.219299   0.000000 
 -0.013787  -1.219922   0.000000 
  0.013787  -1.219922   0.000000 
  0.041353  -1.219299   0.000000 
  0.068898  -1.218053   0.000000 
  0.096407  -1.216185   0.000000 
  0.123868  -1.213696   0.000000 
  0.151265  -1.210586   0.000000 
  0.178585  -1.206858   0.000000 
  0.205814  -1.202514   0.000000 
  0.232937  -1.197556   0.000000 
  0.259942  -1.191986   0.000000 
  0.286814  -1.185807   0.000000 
  0.313539  -1.179022   0.000000 
  0.340104  -1.171635   0.000000 
  0.366496  -1.163650   0.000000 
  0.392700  -1.155070   0.000000 
  0.418704  -1.145900   0.000000 
  0.444494  -1.136145   0.000000 
  0.470056  -1.125810   0.000000 
  0.495379  -1.114899   0.000000 
  0.520449  -1.103419   0.000000 
  0.545252  -1.091375   0.000000 
  0.569777  -1.078774   0.000000 
  0.594012  -1.065622   0.000000 
  0.617942  -1.051925   0.000000 
  0.641558  -1.037692   0.000000 
  0.664845  -1.022928   0.000000 
  0.687793  -1.007641   0.000000 
  0.710389  -0.991840   0.000000 
  0.732623  -0.975532   0.000000 
  0.754482  -0.958726   0.000000 
  0.775956  -0.941431   0.000000 
  0.797034  -0.923654   0.000000 
  0.817704  -0.905406   0.000000 
  0.837957  -0.886695   0.000000 
  0.857782  -0.867531   0.000000 
  0.877169  -0.847924   0.000000 
  0.896107  -0.827884   0.000000 
  0.914588  -0.807421   0.000000 
  0.932602  -0.786545   0.000000 
  0.950139  -0.765268   0.000000 
  0.967191  -0.743600   0.000000 
  0.983749  -0.721552   0.000000 
  0.999805  -0.699136   0.000000 
  1.015349  -0.676362   0.000000 
  1.030375  -0.653243   0.000000 
  1.044875  -0.629790   0.000000 
  1.058841  -0.606016   0.000000 
  1.072267  -0.581932   0.000000 
  1.085144  -0.557550   0.000000 
  1.097467  -0.532884   0.000000 
  1.109230  -0.507946   0.000000 
  1.120426  -0.482748   0.000000 
  1.131049  -0.457304   0.000000 
  1.141095  -0.431626   0.000000 
  1.150559  -0.405728   0.000000 
  1.159434  -0.379622   0.000000 
  1.167717  -0.353323   0.000000 
  1.175404  -0.326843   0.000000 
  1.182490  -0.300196   0.000000 
  1.188972  -0.273395   0.000000 
  1.194847  -0.246455   0.000000 
  1.200112  -0.219390   0.000000 
  1.204763  -0.192212   0.000000 
  1.208800  -0.164936   0.000000 
  1.212218  -0.137575   0.000000 
  1.215018  -0.110145   0.000000 
  1.217197  -0.082658   0.000000 
  1.218754  -0.055129   0.000000 
  1.219688  -0.027571   0.000000 
  1.270000   0.000000   0.000000 
  1.269676   0.028701   0.000000 
  1.268703   0.057388   0.000000 
  1.267082   0.086045   0.000000 
  1.264814   0.114659   0.000000 
  1.261899   0.143214   0.000000 
  1.258340   0.171695   0.000000 
  1.254139   0.200089   0.000000 
  1.249297   0.228381   0.000000 
[...]
<CellData Scalars='scalars'>
<DataArray type='Float32' Name='p' Format='ascii'> 
-44.169610
-44.169701
-44.133412
-44.072249
-44.002064
-43.934767
-43.877083
-43.828868
-43.788896
-43.756336
-43.726732
-43.700118
-43.674413
-43.648447
-43.621390
-43.591922
-43.559345
-43.522613
-43.479758
-43.428270
-43.364639
-43.283239
-43.178068
-43.044747
-42.882539
-42.705778
-42.548982
-42.466149
-42.495367
-42.622219
-42.795273
-42.967804
-43.116540
-43.234979
-43.327600
-43.398973
-43.456225
-43.502769
-43.542627
-43.576847
-43.607793
-43.636101
-43.662294
-43.687805
-43.713499
-43.741011
-43.771615
-43.806540
-43.849241
-43.901309
-43.963519
-44.033777
-44.102126
-44.156741
-44.178796
-44.175795
-44.179251
-44.170793
-44.127682
-44.063268
-43.992554
-43.926752
-43.871034
-43.824309
-43.785928
-43.753471
-43.725595
-43.699316
-43.673941
-43.648399
-43.620997
-43.590595
-43.557264
-43.519208
-43.474779
-43.420243
-43.352202
-43.265493
-43.152966
-43.011482
-42.844704
-42.671081
-42.532929
-42.482588
-42.544070
-42.688134
-42.861939
-43.025682
-43.163300
-43.272803
-43.357329
-43.423745
-43.476973
-43.521277
-43.558816
-43.592013
-43.621765
-43.649061
-43.675084
-43.700595
-43.727641
-43.757132
-43.792033
-43.831346
-43.879572
-43.938553
-44.006015
-44.076069
-44.137835
-44.174385
-44.176795
-44.175863
-44.176568
-44.146418
-44.087255
-44.017634
-43.949331
-43.888940
-43.838827
-43.797991
-43.763430
-43.733644
-43.706905
-43.681234
-43.655587
-43.628734
-43.600016
-43.568195
-43.532646
-43.491673
-43.442742
-43.382624
-43.306807
-43.208854
-43.082815
-42.927741
-42.751753
-42.584179
-42.476177
-42.473948
-42.579268
-42.745978
-42.922011
-43.078370
-43.205296
-43.303925
-43.381306
-43.441298
-43.490809
-43.532128
-43.567928
-43.599800
-43.628233
-43.655155
-43.680967
-43.706859
-43.733087
-43.762827
-43.797127
-43.837269
-43.886996
-43.946807
-44.014485
-44.085277
-44.144394
-44.176750
-44.176863
-44.177341
-44.176272
-44.141848
-44.081094
-44.010835
-43.943010
-43.883870
-43.835303
-43.794421
-43.760565
-43.731188
-43.704404
-43.678983
-43.652426
-43.625414
-43.595674
-43.562750
-43.525461
-43.481577
-43.428963
-43.363980
-43.280397
-43.172531
-43.036243
-42.872853
-42.698434
-42.550755
-42.483134
-42.527154
-42.661304
-42.834063
-43.001728
-43.144678
-43.258899
-43.346927
-43.416117
-43.470970
-43.516485
-43.554851
-43.588182
-43.618545
-43.646673
-43.672549
-43.698162
-43.724316
-43.752686
-43.784769
-43.822683
-43.868476
-43.923308
-43.988717
-44.059084
-44.124954
-44.169883
-44.179887
-44.176522
-44.179978
-44.160743
-44.107719
-44.039723
-43.969771
-43.907608
-43.854061
-43.810701
-43.775071
-43.744205
-43.716659
-43.691000
-43.665580
-43.638886
-43.610521
-43.579405
-43.544719
-43.504861
-43.457828
-43.399700
-43.327100
-43.233308
-43.112050
-42.962836
-42.790708
-42.621349
-42.502950
-42.484544
-42.575198
-42.734359
-42.909255
-43.068076
-43.197861
-43.299860
-43.378805
-43.440787
-43.491104
-43.532737
-43.569162
-43.601085
-43.630052
-43.657019
-43.682769
-43.708769
-43.735304
-43.765033
-43.799992
-43.841465
-43.891941
-43.952309
-44.020419
-44.091189
-44.149965
-44.179978
-44.181434
-39.406495
-39.456881
-39.486076
-39.483064
-39.467693
-39.445338
-39.420394
-39.393478
-39.366284
-39.338693
-39.312113
-39.286886
-39.263807
-39.242593
-39.223505
-39.206520
-39.191741
-39.179179
-39.170089
-39.164513
-39.163865
-39.167873
-39.171664
-39.163893
-39.125268
-39.043587
-38.934314
-38.860526
-38.888106
-38.990049
-39.090480
-39.150075
-39.170868
-39.170880
-39.165980
-39.163774
-39.167196
-39.174506
-39.185647
-39.199153
-39.214933
-39.232759
-39.252609
-39.274209
-39.298561
-39.324368
-39.351380
-39.378619
-39.406473
-39.432689
-39.456836
-39.477118
-39.488464
-39.482074
-39.439192
-39.386941
-39.415272
-39.469182
-39.489623
-39.483541
-39.465783
-39.443125
-39.417819
-39.390534
-39.363158
-39.335544
-39.309759
-39.284765
-39.272425
-39.242468
-39.224514
-39.208214
-39.194140
-39.182612
-39.174432
-39.170550
-39.171300
-39.175961
-39.177604
-39.162569
-39.111546
-39.018164
-38.912322
-38.866347
-38.922758
-39.029442
-39.117594
-39.162819
-39.174796
-39.172255
-39.167924
-39.167742
-39.172733
-39.181361
-39.193469
-39.208044
-39.224744
-39.243389
-39.264341
-39.287420
-39.312317
-39.338659
-39.370479
-39.396809
-39.423617
-39.448241
-39.470046
-39.485957
-39.488145
-39.459769
-39.402721
-39.393763
-39.450651
-39.485349
-39.486963
-39.472889
-39.451697
-39.426868
-39.400038
-39.372162
-39.344968
-39.317911
-39.292354
-39.269503
-39.247584
-39.227962
-39.210693
-39.195390
-39.182214
-39.171994
-39.165593
-39.163501
-39.166724
-39.171283
-39.168458
-39.140332
-39.070301
-38.964004
-38.872304
-38.870303
-38.959843
-39.067277
-39.138672
-39.168776
-39.171857
-39.167631
-39.164294
-39.166048
-39.172664
-39.183004
-39.195714
-39.210852
-39.228098
-39.247249
-39.268747
-39.292695
-39.317609
-39.344098
-39.372202
-39.399248
-39.425856
-39.450947
-39.472297
-39.487685
-39.486872
-39.453818
-39.397310
-39.400584
-39.457427
-39.487634
-39.483200
-39.471820
-39.449378
-39.424663
-39.397673
-39.370184
-39.342808
-39.316433
-39.291285
-39.268207
-39.246925
-39.228257
-39.211182
-39.196425
-39.184579
-39.175097
-39.170436
-39.170641
-39.174392
-39.177621
-39.166775
-39.122915
-39.036308
-38.928874
-38.867574
-38.908502
-39.012980
-39.107817
-39.160182
-39.177110
-39.175518
-39.171141
-39.170004
-39.173779
-39.181901
-39.193139
-39.206836
-39.223630
-39.241715
-39.262380
-39.284447
-39.309043
-39.335316
-39.362476
-39.390318
-39.417125
-39.442460
-39.465976
-39.484019
-39.491033
-39.473389
-39.420320
-39.386214
-39.436190
-39.481620
-39.490260
-39.479409
-39.459258
-39.435554
-39.409531
-39.381985
-39.354211
-39.327608
-39.301540
-39.278746
-39.256429
-39.235874
-39.218321
-39.202587
-39.189445
-39.178587
-39.171312
-39.168788
-39.171346
-39.175893
-39.174438
-39.151212
-39.088218
-38.986002
-38.888356
-38.871372
-38.950861
-39.058705
-39.135895
-39.170686
-39.176621
-39.172573
-39.168822
-39.169640
-39.176325
-39.185556
-39.198062
-39.213376
-39.230736
-39.249801
-39.271288
-39.294412
-39.320037
-39.346628
-39.374447
-39.401766
-39.428829
-39.452914
-39.474548
-39.489078
-39.486235
-39.451606
-39.389579
-34.909772
-34.988170
-35.040898
-35.060202
-35.064897
-35.065960
-35.061983
-35.056632
-35.049072
-35.041273
-35.032440
-35.023982
-35.015830
-35.008816
-35.003973
-35.002108
-35.003950
-35.010180
-35.020764
-35.033310
-35.045207
-35.049470
-35.037425
-34.997078
-34.915240
-34.776855
-34.596115
-34.474294
-34.519383
-34.688901
-34.854497
-34.963409
-35.022327
-35.046986
-35.049101
-35.040148
-35.027165
-35.015091
-35.006997
-35.002586
-35.002449
-35.005769
-35.011612
-35.019445
-35.027904
-35.036931
-35.045252
-35.052938
-35.059793
-35.064659
-35.067160
-35.064988
-35.055905
-35.026665
-34.953973
-34.897585
-34.924506
-35.002176
-35.047992
-35.062772
-35.067069
-35.066353
-35.062544
-35.056064
-35.048697
-35.040716
-35.031997
-35.023777
-35.022560
-35.009370
-35.005604
-35.004990
-35.008131
-35.015609
-35.026630
-35.039653
-35.049618
-35.050158
-35.031024
-34.979746
-34.882828
-34.728669
-34.553614
-34.477443
-34.570962
-34.748359
-34.895879
-34.986374
-35.033133
-35.049632
-35.047640
-35.036589
-35.024141
-35.013295
-35.006610
-35.004098
-35.005542
-35.009725
-35.016546
-35.024254
-35.033145
-35.040273
-35.050653
-35.060759
-35.064761
-35.068103
-35.067632
-35.061851
-35.043058
-34.986897
-34.912591
-34.904224
-34.972118
-35.036305
-35.059031
-35.066466
-35.067478
-35.064522
-35.059088
-35.051721
-35.043945
-35.035418
-35.026551
-35.018365
-35.010726
-35.005360
-35.002688
-35.003768
-35.008833
-35.018354
-35.030769
-35.043726
-35.050635
-35.044354
-35.012704
-34.943628
-34.821301
-34.646268
-34.493860
-34.490313
-34.639083
-34.815457
-34.940422
-35.011226
-35.044235
-35.051175
-35.044320
-35.031803
-35.019355
-35.009828
-35.004308
-35.003148
-35.005081
-35.011789
-35.018485
-35.026886
-35.035578
-35.043649
-35.052153
-35.059043
-35.064659
-35.067421
-35.067308
-35.060008
-35.038829
-34.977393
-34.906748
-34.909635
-34.983077
-35.041217
-35.061692
-35.066239
-35.067927
-35.064488
-35.059065
-35.051607
-35.043809
-35.035237
-35.026733
-35.018388
-35.011919
-35.007201
-35.005678
-35.007997
-35.014568
-35.025141
-35.037783
-35.048765
-35.051244
-35.036101
-34.991194
-34.903428
-34.758750
-34.580717
-34.479194
-34.547065
-34.720551
-34.877007
-34.976949
-35.030047
-35.050601
-35.050795
-35.041222
-35.027978
-35.016944
-35.009376
-35.005806
-35.006764
-35.010345
-35.016677
-35.024505
-35.032986
-35.041592
-35.049743
-35.057496
-35.063454
-35.067796
-35.068956
-35.064784
-35.050721
-35.008225
-34.930417
-34.897494
-34.950244
-35.024414
-35.056019
-35.066159
-35.067902
-35.066478
-35.061316
-35.054597
-35.047003
-35.038738
-35.029984
-35.021515
-35.013784
-35.008554
-35.005075
-35.005883
-35.010055
-35.018775
-35.030780
-35.043286
-35.051369
-35.047469
-35.020616
-34.957952
-34.845016
-34.677169
-34.515188
-34.486447
-34.618392
-34.796199
-34.927939
-35.004700
-35.041876
-35.051653
-35.046583
-35.034441
-35.022185
-35.012090
-35.006485
-35.004905
-35.007213
-35.012317
-35.019571
-35.027188
-35.036328
-35.044570
-35.052847
-35.059657
-35.065369
-35.067768
-35.067364
-35.058702
-35.036783
-34.968548
-34.904906
-30.557362
-30.598687
-30.641797
-30.657736
-30.667229
-30.671225
-30.674505
-30.676421
-30.680326
-30.685050
-30.691717
-30.698163
-30.705201
-30.710908
-30.716899
-30.723027
-30.730234
-30.737954
-30.745764
-30.751687
-30.754359
-30.753401
-30.748862
-30.739955
-30.713716
-30.647641
-30.513380
-30.390333
-30.438468
-30.589172
-30.688443
-30.730087
-30.745650
-30.751630
-30.754671
-30.753631
-30.749266
-30.742092
-30.734304
-30.726733
-30.720162
-30.714159
-30.708520
-30.702336
-30.695719
-30.688852
-30.683032
-30.678541
-30.675614
-30.673311
-30.670037
-30.663841
-30.653064
-30.627029
-30.579031
-30.548972
-30.561432
-30.609249
-30.645720
-30.660522
-30.668411
-30.672459
-30.674914
-30.677359
-30.681269
-30.686465
-30.693127
-30.699016
-30.706661
-30.712152
-30.718141
-30.724536
-30.732213
-30.739682
-30.747213
-30.751983
-30.753722
-30.751474
-30.746355
-30.734350
-30.699562
-30.615161
-30.467072
-30.386832
-30.485262
-30.628712
-30.705291
-30.736817
-30.747478
-30.752609
-30.753955
-30.752130
-30.746548
-30.739261
-30.731314
-30.724129
-30.717445
-30.711544
-30.705337
-30.699084
-30.692217
-30.686783
-30.681724
-30.678007
-30.677029
-30.673615
-30.668986
-30.660203
-30.642059
-30.600540
-30.556203
-30.553338
-30.591036
-30.635942
-30.657520
-30.666928
-30.672300
-30.675369
-30.677802
-30.680781
-30.685896
-30.691672
-30.698618
-30.704973
-30.711158
-30.716910
-30.722947
-30.729723
-30.737584
-30.745429
-30.752409
-30.755857
-30.756098
-30.752369
-30.745264
-30.725175
-30.673289
-30.556521
-30.412423
-30.409274
-30.551655
-30.670662
-30.724095
-30.745082
-30.751991
-30.756175
-30.755987
-30.752619
-30.745912
-30.738215
-30.730467
-30.723595
-30.717445
-30.711999
-30.705723
-30.699391
-30.692399
-30.686329
-30.681520
-30.678143
-30.675585
-30.673030
-30.667377
-30.658532
-30.637625
-30.594174
-30.553110
-30.555020
-30.597630
-30.640740
-30.658362
-30.668912
-30.672712
-30.676125
-30.678041
-30.681747
-30.686329
-30.692854
-30.699425
-30.706099
-30.712147
-30.718149
-30.724607
-30.731928
-30.739568
-30.747196
-30.752483
-30.754768
-30.753154
-30.748424
-30.738420
-30.708543
-30.635283
-30.493584
-30.388719
-30.461160
-30.609908
-30.698175
-30.734873
-30.747913
-30.753387
-30.755365
-30.754006
-30.749425
-30.741708
-30.734353
-30.726332
-30.720210
-30.714216
-30.708196
-30.701642
-30.695151
-30.688489
-30.682918
-30.679121
-30.676711
-30.674306
-30.670128
-30.662886
-30.648744
-30.614092
-30.565297
-30.549472
-30.577121
-30.625574
-30.653587
-30.664796
-30.671265
-30.674600
-30.676983
-30.679610
-30.684100
-30.689807
-30.696560
-30.703086
-30.709600
-30.715034
-30.721492
-30.727927
-30.735828
-30.743422
-30.750380
-30.754359
-30.755137
-30.751858
-30.745605
-30.728734
-30.683600
-30.578758
-30.429896
-30.398769
-30.529623
-30.657702
-30.718297
-30.741768
-30.749737
-30.754120
-30.754586
-30.751596
-30.745650
-30.737885
-30.730018
-30.723106
-30.716774
-30.711089
-30.704780
-30.698197
-30.691308
-30.685703
-30.680576
-30.677887
-30.675143
-30.672766
-30.666627
-30.658089
-30.633942
-30.590661
-30.549097
-26.210493
-26.231567
-26.245016
-26.255714
-26.261228
-26.268148
-26.272801
-26.279486
-26.286273
-26.296101
-26.307004
-26.319816
-26.332441
-26.344333
-26.354161
-26.362545
-26.368832
-26.373345
-26.376313
-26.377393
-26.377359
-26.376892
-26.376992
-26.375892
-26.369662
-26.345049
-26.300381
-26.265093
-26.277615
-26.325392
-26.359407
-26.373914
-26.376057
-26.376627
-26.376648
-26.377302
-26.376676
-26.374983
-26.371163
-26.365967
-26.358759
-26.349949
-26.339058
-26.326938
-26.313899
-26.301836
-26.291309
-26.282714
-26.275984
-26.270214
-26.264615
-26.258499
-26.250586
-26.240104
-26.220641
-26.207681
-26.213252
-26.233784
-26.247449
-26.256009
-26.262609
-26.268191
-26.273523
-26.279889
-26.287387
-26.297104
-26.308379
-26.321123
-26.333350
-26.345069
-26.354294
-26.362122
-26.367856
-26.372226
-26.374337
-26.375173
-26.374721
-26.374596
-26.374494
-26.372982
-26.362181
-26.331554
-26.282260
-26.258522
-26.288490
-26.337034
-26.366035
-26.374801
-26.376267
-26.376117
-26.376671
-26.376540
-26.375790
-26.373061
-26.368639
-26.362352
-26.354337
-26.344424
-26.332941
-26.320197
-26.308112
-26.297027
-26.287830
-26.281134
-26.274861
-26.269788
-26.263729
-26.256839
-26.247858
-26.231783
-26.213229
-26.211319
-26.227735
-26.245220
-26.255043
-26.262251
-26.268248
-26.273703
-26.279588
-26.286773
-26.295527
-26.306611
-26.318787
-26.331861
-26.343901
-26.354314
-26.362829
-26.369605
-26.374585
-26.378029
-26.379337
-26.379783
-26.379115
-26.379331
-26.378513
-26.374823
-26.355696
-26.316650
-26.273773
-26.272573
-26.314410
-26.354564
-26.374272
-26.378234
-26.379172
-26.378855
-26.379598
-26.379334
-26.378103
-26.374676
-26.370077
-26.363227
-26.355042
-26.344571
-26.332816
-26.319685
-26.307453
-26.296254
-26.287393
-26.279969
-26.274242
-26.268367
-26.262808
-26.255157
-26.246357
-26.228963
-26.211615
-26.211637
-26.230600
-26.246971
-26.256544
-26.262876
-26.269373
-26.274311
-26.280611
-26.287432
-26.296743
-26.307407
-26.320072
-26.332486
-26.344298
-26.354246
-26.362477
-26.368639
-26.373255
-26.375847
-26.376870
-26.376750
-26.376435
-26.376441
-26.375460
-26.367161
-26.339762
-26.292037
-26.260614
-26.281782
-26.331622
-26.363273
-26.375199
-26.376739
-26.377035
-26.377091
-26.377535
-26.376739
-26.374587
-26.370225
-26.364516
-26.356943
-26.347504
-26.336215
-26.323778
-26.311011
-26.299551
-26.289746
-26.282083
-26.275725
-26.270217
-26.264559
-26.257976
-26.249586
-26.236376
-26.216276
-26.209773
-26.221119
-26.240718
-26.251905
-26.259772
-26.265803
-26.271574
-26.277036
-26.283863
-26.291923
-26.302450
-26.314171
-26.327041
-26.339023
-26.350051
-26.358862
-26.366138
-26.371345
-26.375142
-26.376813
-26.377370
-26.376728
-26.376780
-26.376387
-26.373516
-26.357543
-26.321186
-26.273369
-26.264865
-26.304519
-26.347971
-26.370719
-26.375659
-26.376648
-26.376438
-26.377018
-26.376739
-26.375847
-26.372481
-26.367900
-26.360999
-26.352916
-26.342246
-26.330650
-26.317582
-26.305702
-26.294566
-26.286318
-26.278866
-26.273601
-26.267355
-26.262330
-26.253849
-26.245584
-26.225189
-26.211295
-21.853063
-21.854422
-21.855732
-21.855968
-21.862351
-21.867876
-21.876497
-21.884685
-21.895511
-21.906044
-21.917987
-21.929441
-21.941383
-21.952087
-21.961637
-21.968691
-21.973625
-21.976285
-21.977655
-21.978326
-21.979531
-21.982402
-21.987967
-21.998198
-22.011727
-22.029337
-22.083327
-22.216324
-22.151488
-22.045390
-22.018367
-22.003087
-21.991622
-21.983447
-21.979758
-21.977706
-21.977223
-21.976211
-21.974597
-21.970891
-21.965150
-21.956816
-21.946857
-21.935375
-21.923552
-21.911706
-21.900405
-21.889628
-21.879933
-21.871266
-21.864111
-21.857818
-21.853816
-21.853180
-21.852838
-21.849519
-21.850428
-21.854180
-21.854123
-21.855999
-21.861848
-21.868368
-21.876224
-21.885620
-21.895687
-21.906544
-21.918288
-21.929657
-21.941412
-21.951527
-21.960611
-21.966824
-21.971289
-21.973376
-21.974634
-21.975291
-21.977144
-21.980597
-21.987708
-21.999233
-22.013410
-22.035078
-22.114091
-22.211748
-22.099607
-22.033123
-22.013739
-22.000000
-21.988893
-21.982542
-21.979042
-21.977735
-21.976717
-21.975563
-21.972846
-21.968276
-21.961284
-21.952235
-21.941491
-21.930191
-21.918447
-21.907101
-21.896460
-21.886433
-21.877688
-21.869926
-21.863536
-21.858432
-21.856908
-21.857340
-21.852702
-21.852884
-21.856249
-21.856727
-21.857613
-21.862286
-21.868686
-21.876156
-21.884978
-21.894971
-21.905896
-21.917288
-21.929156
-21.940832
-21.952201
-21.961858
-21.969714
-21.974842
-21.978434
-21.979636
-21.980600
-21.981291
-21.983902
-21.988171
-21.997403
-22.009840
-22.025881
-22.062574
-22.190636
-22.195752
-22.064933
-22.026472
-22.010056
-21.997562
-21.988143
-21.983676
-21.981043
-21.980384
-21.979577
-21.978235
-21.975058
-21.970050
-21.962222
-21.952792
-21.941435
-21.929884
-21.917822
-21.906561
-21.895266
-21.885552
-21.876312
-21.869084
-21.862206
-21.857750
-21.856067
-21.857159
-21.851815
-21.853157
-21.856749
-21.857181
-21.857454
-21.863309
-21.869158
-21.877224
-21.885626
-21.895937
-21.906510
-21.918072
-21.929532
-21.941253
-21.951837
-21.961205
-21.968162
-21.972971
-21.975541
-21.976950
-21.977712
-21.979207
-21.982385
-21.988797
-21.999551
-22.013501
-22.032009
-22.094127
-22.212748
-22.123027
-22.039376
-22.016616
-22.002268
-21.990769
-21.983226
-21.979798
-21.977888
-21.977317
-21.976301
-21.973560
-21.969483
-21.963214
-21.954364
-21.944101
-21.932544
-21.920960
-21.909318
-21.898393
-21.887934
-21.878722
-21.870665
-21.863855
-21.858182
-21.855192
-21.855453
-21.852497
-21.851065
-21.853657
-21.855612
-21.855544
-21.859216
-21.865469
-21.872447
-21.881010
-21.890435
-21.901235
-21.912228
-21.924097
-21.935489
-21.947062
-21.956771
-21.965218
-21.970743
-21.974586
-21.976211
-21.977314
-21.978036
-21.980279
-21.984454
-21.992895
-22.005122
-22.020185
-22.049358
-22.158861
-22.200015
-22.071254
-22.026552
-22.009885
-21.996522
-21.986635
-21.981543
-21.978622
-21.977422
-21.976479
-21.975359
-21.972164
-21.967287
-21.959613
-21.950194
-21.938934
-21.927747
-21.915741
-21.904793
-21.893436
-21.884267
-21.874963
-21.868280
-21.861050
-21.857636
-21.854970
-21.856573
-21.849087
-17.473911
-17.472615
-17.462116
-17.461616
-17.463972
-17.472576
-17.480994
-17.493232
-17.504635
-17.517277
-17.528197
-17.538480
-17.546972
-17.554859
-17.561015
-17.566217
-17.569567
-17.571909
-17.573359
-17.575115
-17.577906
-17.582786
-17.590506
-17.599541
-17.612751
-17.644322
-17.818940
-18.209005
-18.026424
-17.695183
-17.621232
-17.603611
-17.592697
-17.584632
-17.578114
-17.574700
-17.572302
-17.571153
-17.569278
-17.566697
-17.562337
-17.556869
-17.549797
-17.541925
-17.532489
-17.522041
-17.510212
-17.498087
-17.485957
-17.475168
-17.466260
-17.460343
-17.458137
-17.464004
-17.471120
-17.472939
-17.472166
-17.468574
-17.460525
-17.459365
-17.463674
-17.471490
-17.481250
-17.492857
-17.505124
-17.517016
-17.527731
-17.537610
-17.545707
-17.553214
-17.558898
-17.563710
-17.566560
-17.568740
-17.570085
-17.572330
-17.575667
-17.581738
-17.589730
-17.600007
-17.614718
-17.665525
-17.927437
-18.210403
-17.878506
-17.656225
-17.615400
-17.601405
-17.591793
-17.583704
-17.578306
-17.574871
-17.573103
-17.571341
-17.569300
-17.565833
-17.561132
-17.554908
-17.547598
-17.538946
-17.529146
-17.518050
-17.506147
-17.494119
-17.482814
-17.473383
-17.466323
-17.462594
-17.465504
-17.473531
-17.476896
-17.477078
-17.474576
-17.466482
-17.462253
-17.465413
-17.471962
-17.481284
-17.492346
-17.504635
-17.516697
-17.528254
-17.538412
-17.547615
-17.555186
-17.562019
-17.567220
-17.571347
-17.573660
-17.575488
-17.576781
-17.579434
-17.583352
-17.590526
-17.598882
-17.610819
-17.632738
-17.744878
-18.131482
-18.145897
-17.753655
-17.633874