<VTKFile type='UnstructuredGrid' version='0.1' byte_order='BigEndian'> 
<UnstructuredGrid> 
<Piece NumberOfPoints='  1089 ' NumberOfCells='  1024 '> 
<Points> 
<DataArray type='Float32' NumberOfComponents='3' Format='ascii'> 
0.000000e+00 0.000000e+00 0.000000e+00 
3.125000e-02 0.000000e+00 0.000000e+00 
6.250000e-02 0.000000e+00 0.000000e+00 
9.375000e-02 0.000000e+00 0.000000e+00 
1.250000e-01 0.000000e+00 0.000000e+00 
1.562500e-01 0.000000e+00 0.000000e+00 
1.875000e-01 0.000000e+00 0.000000e+00 
2.187500e-01 0.000000e+00 0.000000e+00 
2.500000e-01 0.000000e+00 0.000000e+00 
2.812500e-01 0.000000e+00 0.000000e+00 
3.125000e-01 0.000000e+00 0.000000e+00 
3.437500e-01 0.000000e+00 0.000000e+00 
3.750000e-01 0.000000e+00 0.000000e+00 
4.062500e-01 0.000000e+00 0.000000e+00 
4.375000e-01 0.000000e+00 0.000000e+00 
4.687500e-01 0.000000e+00 0.000000e+00 
5.000000e-01 0.000000e+00 0.000000e+00 
5.312500e-01 0.000000e+00 0.000000e+00 
5.625000e-01 0.000000e+00 0.000000e+00 
5.937500e-01 0.000000e+00 0.000000e+00 
6.250000e-01 0.000000e+00 0.000000e+00 
6.562500e-01 0.000000e+00 0.000000e+00 
6.875000e-01 0.000000e+00 0.000000e+00 
7.187500e-01 0.000000e+00 0.000000e+00 
7.500000e-01 0.000000e+00 0.000000e+00 
7.812500e-01 0.000000e+00 0.000000e+00 
8.125000e-01 0.000000e+00 0.000000e+00 
8.437500e-01 0.000000e+00 0.000000e+00 
8.750000e-01 0.000000e+00 0.000000e+00 
9.062500e-01 0.000000e+00 0.000000e+00 
9.375000e-01 0.000000e+00 0.000000e+00 
9.687500e-01 0.000000e+00 0.000000e+00 
1.000000e+00 0.000000e+00 0.000000e+00 
0.000000e+00 3.125000e-02 0.000000e+00 
3.125000e-02 3.125000e-02 0.000000e+00 
6.250000e-02 3.125000e-02 0.000000e+00 
9.375000e-02 3.125000e-02 0.000000e+00 
1.250000e-01 3.125000e-02 0.000000e+00 
1.562500e-01 3.125000e-02 0.000000e+00 
1.875000e-01 3.125000e-02 0.000000e+00 
2.187500e-01 3.125000e-02 0.000000e+00 
2.500000e-01 3.125000e-02 0.000000e+00 
2.812500e-01 3.125000e-02 0.000000e+00 
3.125000e-01 3.125000e-02 0.000000e+00 
3.437500e-01 3.125000e-02 0.000000e+00 
3.750000e-01 3.125000e-02 0.000000e+00 
4.062500e-01 3.125000e-02 0.000000e+00 
4.375000e-01 3.125000e-02 0.000000e+00 
4.687500e-01 3.125000e-02 0.000000e+00 
5.000000e-01 3.125000e-02 0.000000e+00 
5.312500e-01 3.125000e-02 0.000000e+00 
5.625000e-01 3.125000e-02 0.000000e+00 
5.937500e-01 3.125000e-02 0.000000e+00 
6.250000e-01 3.125000e-02 0.000000e+00 
6.562500e-01 3.125000e-02 0.000000e+00 
6.875000e-01 3.125000e-02 0.000000e+00 
7.187500e-01 3.125000e-02 0.000000e+00 
7.500000e-01 3.125000e-02 0.000000e+00 
7.812500e-01 3.125000e-02 0.000000e+00 
8.125000e-01 3.125000e-02 0.000000e+00 
8.437500e-01 3.125000e-02 0.000000e+00 
8.750000e-01 3.125000e-02 0.000000e+00 
9.062500e-01 3.125000e-02 0.000000e+00 
9.375000e-01 3.125000e-02 0.000000e+00 
9.687500e-01 3.125000e-02 0.000000e+00 
1.000000e+00 3.125000e-02 0.000000e+00 
0.000000e+00 6.250000e-02 0.000000e+00 
3.125000e-02 6.250000e-02 0.000000e+00 
6.250000e-02 6.250000e-02 0.000000e+00 
9.375000e-02 6.250000e-02 0.000000e+00 
1.250000e-01 6.250000e-02 0.000000e+00 
1.562500e-01 6.250000e-02 0.000000e+00 
1.875000e-01 6.250000e-02 0.000000e+00 
2.187500e-01 6.250000e-02 0.000000e+00 
2.500000e-01 6.250000e-02 0.000000e+00 
2.812500e-01 6.250000e-02 0.000000e+00 
3.125000e-01 6.250000e-02 0.000000e+00 
3.437500e-01 6.250000e-02 0.000000e+00 
3.750000e-01 6.250000e-02 0.000000e+00 
4.062500e-01 6.250000e-02 0.000000e+00 
4.375000e-01 6.250000e-02 0.000000e+00 
4.687500e-01 6.250000e-02 0.000000e+00 
5.000000e-01 6.250000e-02 0.000000e+00 
5.312500e-01 6.250000e-02 0.000000e+00 
5.625000e-01 6.250000e-02 0.000000e+00 
5.937500e-01 6.250000e-02 0.000000e+00 
6.250000e-01 6.250000e-02 0.000000e+00 
6.562500e-01 6.250000e-02 0.000000e+00 
6.875000e-01 6.250000e-02 0.000000e+00 
7.187500e-01 6.250000e-02 0.000000e+00 
7.500000e-01 6.250000e-02 0.000000e+00 
7.812500e-01 6.250000e-02 0.000000e+00 
8.125000e-01 6.250000e-02 0.000000e+00 
8.437500e-01 6.250000e-02 0.000000e+00 
8.750000e-01 6.250000e-02 0.000000e+00 
9.062500e-01 6.250000e-02 0.000000e+00 
9.375000e-01 6.250000e-02 0.000000e+00 
9.687500e-01 6.250000e-02 0.000000e+00 
1.000000e+00 6.250000e-02 0.000000e+00 
0.000000e+00 9.375000e-02 0.000000e+00 
3.125000e-02 9.375000e-02 0.000000e+00 
6.250000e-02 9.375000e-02 0.000000e+00 
9.375000e-02 9.375000e-02 0.000000e+00 
1.250000e-01 9.375000e-02 0.000000e+00 
1.562500e-01 9.375000e-02 0.000000e+00 
1.875000e-01 9.375000e-02 0.000000e+00 
2.187500e-01 9.375000e-02 0.000000e+00 
2.500000e-01 9.375000e-02 0.000000e+00 
2.812500e-01 9.375000e-02 0.000000e+00 
3.125000e-01 9.375000e-02 0.000000e+00 
3.437500e-01 9.375000e-02 0.000000e+00 
3.750000e-01 9.375000e-02 0.000000e+00 
4.062500e-01 9.375000e-02 0.000000e+00 
4.375000e-01 9.375000e-02 0.000000e+00 
4.687500e-01 9.375000e-02 0.000000e+00 
5.000000e-01 9.375000e-02 0.000000e+00 
5.312500e-01 9.375000e-02 0.000000e+00 
5.625000e-01 9.375000e-02 0.000000e+00 
5.937500e-01 9.375000e-02 0.000000e+00 
6.250000e-01 9.375000e-02 0.000000e+00 
6.562500e-01 9.375000e-02 0.000000e+00 
6.875000e-01 9.375000e-02 0.000000e+00 
7.187500e-01 9.375000e-02 0.000000e+00 
7.500000e-01 9.375000e-02 0.000000e+00 
7.812500e-01 9.375000e-02 0.000000e+00 
8.125000e-01 9.375000e-02 0.000000e+00 
8.437500e-01 9.375000e-02 0.000000e+00 
8.750000e-01 9.375000e-02 0.000000e+00 
9.062500e-01 9.375000e-02 0.000000e+00 
9.375000e-01 9.375000e-02 0.000000e+00 
9.687500e-01 9.375000e-02 0.000000e+00 
1.000000e+00 9.375000e-02 0.000000e+00 
0.000000e+00 1.250000e-01 0.000000e+00 
3.125000e-02 1.250000e-01 0.000000e+00 
6.250000e-02 1.250000e-01 0.000000e+00 
9.375000e-02 1.250000e-01 0.000000e+00 
1.250000e-01 1.250000e-01 0.000000e+00 
1.562500e-01 1.250000e-01 0.000000e+00 
1.875000e-01 1.250000e-01 0.000000e+00 
2.187500e-01 1.250000e-01 0.000000e+00 
2.500000e-01 1.250000e-01 0.000000e+00 
2.812500e-01 1.250000e-01 0.000000e+00 
3.125000e-01 1.250000e-01 0.000000e+00 
3.437500e-01 1.250000e-01 0.000000e+00 
3.750000e-01 1.250000e-01 0.000000e+00 
4.062500e-01 1.250000e-01 0.000000e+00 
4.375000e-01 1.250000e-01 0.000000e+00 
4.687500e-01 1.250000e-01 0.000000e+00 
5.000000e-01 1.250000e-01 0.000000e+00 
5.312500e-01 1.250000e-01 0.000000e+00 
5.625000e-01 1.250000e-01 0.000000e+00 
5.937500e-01 1.250000e-01 0.000000e+00 
6.250000e-01 1.250000e-01 0.000000e+00 
6.562500e-01 1.250000e-01 0.000000e+00 
6.875000e-01 1.250000e-01 0.000000e+00 
7.187500e-01 1.250000e-01 0.000000e+00 
7.500000e-01 1.250000e-01 0.000000e+00 
7.812500e-01 1.250000e-01 0.000000e+00 
8.125000e-01 1.250000e-01 0.000000e+00 
8.437500e-01 1.250000e-01 0.000000e+00 
8.750000e-01 1.250000e-01 0.000000e+00 
9.062500e-01 1.250000e-01 0.000000e+00 
9.375000e-01 1.250000e-01 0.000000e+00 
9.687500e-01 1.250000e-01 0.000000e+00 
1.000000e+00 1.250000e-01 0.000000e+00 
0.000000e+00 1.562500e-01 0.000000e+00 
3.125000e-02 1.562500e-01 0.000000e+00 
6.250000e-02 1.562500e-01 0.000000e+00 
9.375000e-02 1.562500e-01 0.000000e+00 
1.250000e-01 1.562500e-01 0.000000e+00 
1.562500e-01 1.562500e-01 0.000000e+00 
1.875000e-01 1.562500e-01 0.000000e+00 
2.187500e-01 1.562500e-01 0.000000e+00 
2.500000e-01 1.562500e-01 0.000000e+00 
2.812500e-01 1.562500e-01 0.000000e+00 
3.125000e-01 1.562500e-01 0.000000e+00 
3.437500e-01 1.562500e-01 0.000000e+00 
3.750000e-01 1.562500e-01 0.000000e+00 
4.062500e-01 1.562500e-01 0.000000e+00 
4.375000e-01 1.562500e-01 0.000000e+00 
4.687500e-01 1.562500e-01 0.000000e+00 
5.000000e-01 1.562500e-01 0.000000e+00 
5.312500e-01 1.562500e-01 0.000000e+00 
5.625000e-01 1.562500e-01 0.000000e+00 
5.937500e-01 1.562500e-01 0.000000e+00 
6.250000e-01 1.562500e-01 0.000000e+00 
6.562500e-01 1.562500e-01 0.000000e+00 
6.875000e-01 1.562500e-01 0.000000e+00 
7.187500e-01 1.562500e-01 0.000000e+00 
7.500000e-01 1.562500e-01 0.000000e+00 
7.812500e-01 1.562500e-01 0.000000e+00 
8.125000e-01 1.562500e-01 0.000000e+00 
8.437500e-01 1.562500e-01 0.000000e+00 
8.750000e-01 1.562500e-01 0.000000e+00 
9.062500e-01 1.562500e-01 0.000000e+00 
9.375000e-01 1.562500e-01 0.000000e+00 
9.687500e-01 1.562500e-01 0.000000e+00 
1.000000e+00 1.562500e-01 0.000000e+00 
0.000000e+00 1.875000e-01 0.000000e+00 
3.125000e-02 1.875000e-01 0.000000e+00 
6.250000e-02 1.875000e-01 0.000000e+00 
9.375000e-02 1.875000e-01 0.000000e+00 
1.250000e-01 1.875000e-01 0.000000e+00 
1.562500e-01 1.875000e-01 0.000000e+00 
1.875000e-01 1.875000e-01 0.000000e+00 
2.187500e-01 1.875000e-01 0.000000e+00 
2.500000e-01 1.875000e-01 0.000000e+00 
2.812500e-01 1.875000e-01 0.000000e+00 
3.125000e-01 1.875000e-01 0.000000e+00 
3.437500e-01 1.875000e-01 0.000000e+00 
3.750000e-01 1.875000e-01 0.000000e+00 
4.062500e-01 1.875000e-01 0.000000e+00 
4.375000e-01 1.875000e-01 0.000000e+00 
4.687500e-01 1.875000e-01 0.000000e+00 
5.000000e-01 1.875000e-01 0.000000e+00 
5.312500e-01 1.875000e-01 0.000000e+00 
5.625000e-01 1.875000e-01 0.000000e+00 
5.937500e-01 1.875000e-01 0.000000e+00 
6.250000e-01 1.875000e-01 0.000000e+00 
6.562500e-01 1.875000e-01 0.000000e+00 
6.875000e-01 1.875000e-01 0.000000e+00 
7.187500e-01 1.875000e-01 0.000000e+00 
7.500000e-01 1.875000e-01 0.000000e+00 
7.812500e-01 1.875000e-01 0.000000e+00 
8.125000e-01 1.875000e-01 0.000000e+00 
8.437500e-01 1.875000e-01 0.000000e+00 
8.750000e-01 1.875000e-01 0.000000e+00 
9.062500e-01 1.875000e-01 0.000000e+00 
9.375000e-01 1.875000e-01 0.000000e+00 
9.687500e-01 1.875000e-01 0.000000e+00 
1.000000e+00 1.875000e-01 0.000000e+00 
0.000000e+00 2.187500e-01 0.000000e+00 
3.125000e-02 2.187500e-01 0.000000e+00 
6.250000e-02 2.187500e-01 0.000000e+00 
9.375000e-02 2.187500e-01 0.000000e+00 
1.250000e-01 2.187500e-01 0.000000e+00 
1.562500e-01 2.187500e-01 0.000000e+00 
1.875000e-01 2.187500e-01 0.000000e+00 
2.187500e-01 2.187500e-01 0.000000e+00 
2.500000e-01 2.187500e-01 0.000000e+00 
2.812500e-01 2.187500e-01 0.000000e+00 
3.125000e-01 2.187500e-01 0.000000e+00 
3.437500e-01 2.187500e-01 0.000000e+00 
3.750000e-01 2.187500e-01 0.000000e+00 
[...]
<CellData Scalars='scalars'>
<DataArray type='Float32' Name='p' Format='ascii'> 
-4.174043e+01
-4.182101e+01
-4.194726e+01
-4.207927e+01
-4.219396e+01
-4.228535e+01
-4.235623e+01
-4.241159e+01
-4.245588e+01
-4.249239e+01
-4.252333e+01
-4.255013e+01
-4.257370e+01
-4.259467e+01
-4.261347e+01
-4.263044e+01
-4.264591e+01
-4.266021e+01
-4.267376e+01
-4.268704e+01
-4.270073e+01
-4.271565e+01
-4.273298e+01
-4.275417e+01
-4.278120e+01
-4.281632e+01
-4.286184e+01
-4.291840e+01
-4.298249e+01
-4.304324e+01
-4.308354e+01
-4.309553e+01
-3.935558e+01
-3.939190e+01
-3.943995e+01
-3.948083e+01
-3.951115e+01
-3.953473e+01
-3.955513e+01
-3.957399e+01
-3.959179e+01
-3.960862e+01
-3.962458e+01
-3.963981e+01
-3.965444e+01
-3.966861e+01
-3.968246e+01
-3.969613e+01
-3.970976e+01
-3.972354e+01
-3.973772e+01
-3.975257e+01
-3.976844e+01
-3.978576e+01
-3.980507e+01
-3.982693e+01
-3.985209e+01
-3.988097e+01
-3.991385e+01
-3.994965e+01
-3.998569e+01
-4.001615e+01
-4.003050e+01
-4.002024e+01
-3.657111e+01
-3.664220e+01
-3.673466e+01
-3.680798e+01
-3.685143e+01
-3.687042e+01
-3.687448e+01
-3.687171e+01
-3.686737e+01
-3.686408e+01
-3.686284e+01
-3.686384e+01
-3.686692e+01
-3.687191e+01
-3.687861e+01
-3.688688e+01
-3.689663e+01
-3.690775e+01
-3.692019e+01
-3.693384e+01
-3.694861e+01
-3.696440e+01
-3.698110e+01
-3.699859e+01
-3.701667e+01
-3.703503e+01
-3.705301e+01
-3.707001e+01
-3.708385e+01
-3.709083e+01
-3.707459e+01
-3.703501e+01
-3.384194e+01
-3.392390e+01
-3.401879e+01
-3.408751e+01
-3.412856e+01
-3.414960e+01
-3.415702e+01
-3.415548e+01
-3.414871e+01
-3.413989e+01
-3.413137e+01
-3.412460e+01
-3.412023e+01
-3.411845e+01
-3.411914e+01
-3.412209e+01
-3.412702e+01
-3.413362e+01
-3.414155e+01
-3.415049e+01
-3.416011e+01
-3.417015e+01
-3.418045e+01
-3.419085e+01
-3.420108e+01
-3.421068e+01
-3.421871e+01
-3.422445e+01
-3.422585e+01
-3.421849e+01
-3.418344e+01
-3.413298e+01
-3.108118e+01
-3.117443e+01
-3.126941e+01
-3.132809e+01
-3.135872e+01
-3.137435e+01
-3.138239e+01
-3.138530e+01
-3.138386e+01
-3.137905e+01
-3.137235e+01
-3.136529e+01
-3.135907e+01
-3.135438e+01
-3.135147e+01
-3.135027e+01
-3.135056e+01
-3.135198e+01
-3.135417e+01
-3.135685e+01
-3.135984e+01
-3.136320e+01
-3.136706e+01
-3.137153e+01
-3.137634e+01
-3.138091e+01
-3.138402e+01
-3.138469e+01
-3.138085e+01
-3.136807e+01
-3.132990e+01
-3.128411e+01
-2.832568e+01
-2.841875e+01
-2.849833e+01
-2.853822e+01
-2.855551e+01
-2.856468e+01
-2.857152e+01
-2.857673e+01
-2.857959e+01
-2.857967e+01
-2.857720e+01
-2.857301e+01
-2.856805e+01
-2.856311e+01
-2.855863e+01
-2.855475e+01
-2.855137e+01
-2.854827e+01
-2.854529e+01
-2.854245e+01
-2.854004e+01
-2.853848e+01
-2.853813e+01
-2.853905e+01
-2.854086e+01
-2.854279e+01
-2.854371e+01
-2.854252e+01
-2.853775e+01
-2.852558e+01
-2.849393e+01
-2.845936e+01
-2.556060e+01
-2.564377e+01
-2.570456e+01
-2.572823e+01
-2.573491e+01
-2.573870e+01
-2.574364e+01
-2.574906e+01
-2.575366e+01
-2.575646e+01
-2.575705e+01
-2.575555e+01
-2.575243e+01
-2.574825e+01
-2.574341e+01
-2.573810e+01
-2.573237e+01
-2.572622e+01
-2.571986e+01
-2.571373e+01
-2.570846e+01
-2.570458e+01
-2.570228e+01
-2.570140e+01
-2.570144e+01
-2.570170e+01
-2.570131e+01
-2.569948e+01
-2.569540e+01
-2.568639e+01
-2.566435e+01
-2.564093e+01
-2.279640e+01
-2.285936e+01
-2.289824e+01
-2.290856e+01
-2.290829e+01
-2.290853e+01
-2.291103e+01
-2.291486e+01
-2.291887e+01
-2.292209e+01
-2.292382e+01
-2.292378e+01
-2.292201e+01
-2.291873e+01
-2.291415e+01
-2.290845e+01
-2.290177e+01
-2.289438e+01
-2.288679e+01
-2.287969e+01
-2.287365e+01
-2.286902e+01
-2.286578e+01
-2.286370e+01
-2.286235e+01
-2.286124e+01
-2.285984e+01
-2.285768e+01
-2.285457e+01
-2.284907e+01
-2.283587e+01
-2.282119e+01
-2.002986e+01
-2.006286e+01
-2.008224e+01
-2.008445e+01
-2.008065e+01
-2.007846e+01
-2.007837e+01
-2.007968e+01
-2.008174e+01
-2.008383e+01
-2.008528e+01
-2.008562e+01
-2.008460e+01
-2.008214e+01
-2.007826e+01
-2.007301e+01
-2.006661e+01
-2.005948e+01
-2.005220e+01
-2.004532e+01
-2.003921e+01
-2.003409e+01
-2.002998e+01
-2.002675e+01
-2.002416e+01
-2.002192e+01
-2.001973e+01
-2.001744e+01
-2.001521e+01
-2.001276e+01
-2.000646e+01
-1.999807e+01
-1.726693e+01
-1.726141e+01
-1.726224e+01
-1.725895e+01
-1.725302e+01
-1.724868e+01
-1.724597e+01
-1.724468e+01
-1.724445e+01
-1.724487e+01
-1.724542e+01
-1.724562e+01
-1.724505e+01
-1.724340e+01
-1.724046e+01
-1.723620e+01
-1.723081e+01
-1.722466e+01
-1.721814e+01
-1.721159e+01
-1.720529e+01
-1.719948e+01
-1.719433e+01
-1.718991e+01
-1.718617e+01
-1.718299e+01
-1.718026e+01
-1.717801e+01
-1.717663e+01
-1.717670e+01
-1.717545e+01
-1.717154e+01
-1.450938e+01
-1.445447e+01
-1.443862e+01
-1.443222e+01
-1.442489e+01
-1.441843e+01
-1.441334e+01
-1.440972e+01
-1.440749e+01
-1.440639e+01
-1.440607e+01
-1.440606e+01
-1.440583e+01
-1.440487e+01
-1.440286e+01
-1.439967e+01
-1.439540e+01
-1.439022e+01
-1.438434e+01
-1.437794e+01
-1.437127e+01
-1.436465e+01
-1.435838e+01
-1.435274e+01
-1.434787e+01
-1.434384e+01
-1.434070e+01
-1.433859e+01
-1.433808e+01
-1.434024e+01
-1.434259e+01
-1.434188e+01
-1.176259e+01
-1.164643e+01
-1.161288e+01
-1.160383e+01
-1.159538e+01
-1.158724e+01
-1.158021e+01
-1.157478e+01
-1.157102e+01
-1.156881e+01
-1.156783e+01
-1.156758e+01
-1.156744e+01
-1.156686e+01
-1.156544e+01
-1.156302e+01
-1.155959e+01
-1.155516e+01
-1.154977e+01
-1.154351e+01
-1.153656e+01
-1.152922e+01
-1.152192e+01
-1.151508e+01
-1.150909e+01
-1.150422e+01
-1.150067e+01
-1.149868e+01
-1.149898e+01
-1.150275e+01
-1.150748e+01
-1.150898e+01
-9.031133e+00
-8.836847e+00
-8.783866e+00
-8.772260e+00
-8.763226e+00
-8.754231e+00
-8.746075e+00
-8.739453e+00
-8.734660e+00
-8.731604e+00
-8.729957e+00
-8.729180e+00
-8.728688e+00
-8.727965e+00
-8.726684e+00
-8.724660e+00
-8.721788e+00
-8.717972e+00
-8.713125e+00
-8.707202e+00
-8.700275e+00
-8.692587e+00
-8.684566e+00
-8.676768e+00
-8.669763e+00
-8.664041e+00
-8.659982e+00
-8.657955e+00
-8.658764e+00
-8.663444e+00
-8.669349e+00
-8.672162e+00
-6.321218e+00
-6.029125e+00
-5.951393e+00
-5.935819e+00
-5.926397e+00
-5.917484e+00
-5.909103e+00
-5.901971e+00
-5.896472e+00
-5.892587e+00
-5.890018e+00
-5.888322e+00
-5.887031e+00
-5.885779e+00
-5.884302e+00
-5.882423e+00
-5.879976e+00
-5.876784e+00
-5.872653e+00
-5.867417e+00
-5.861010e+00
-5.853548e+00
-5.845388e+00
-5.837102e+00
-5.829386e+00
-5.822906e+00
-5.818219e+00
-5.815833e+00
-5.816583e+00
-5.821165e+00
-5.826953e+00
-5.830151e+00
-3.639498e+00
-3.225795e+00
-3.115277e+00
-3.093017e+00
-3.082566e+00
-3.074075e+00
-3.066052e+00
-3.058841e+00
-3.052828e+00
-3.048069e+00
-3.044427e+00
-3.041624e+00
-3.039389e+00
-3.037482e+00
-3.035717e+00
-3.033917e+00
-3.031895e+00
-3.029419e+00
-3.026229e+00
-3.022057e+00
-3.016709e+00
-3.010145e+00
-3.002572e+00
-2.994475e+00
-2.986550e+00
-2.979557e+00
-2.974176e+00
-2.971041e+00
-2.970942e+00
-2.974216e+00
-2.978558e+00
-2.981196e+00
-9.932765e-01
-4.357583e-01
-2.785196e-01
-2.442761e-01
-2.303841e-01
-2.213987e-01
-2.134698e-01
-2.061776e-01
-1.996870e-01
-1.941339e-01
-1.895226e-01
-1.857703e-01
-1.827513e-01
-1.803399e-01
-1.783965e-01
-1.767698e-01
-1.752626e-01
-1.736318e-01
-1.715775e-01
-1.687764e-01
-1.649283e-01
-1.598454e-01
-1.535495e-01
-1.463440e-01
-1.388019e-01
-1.316465e-01
-1.256004e-01
-1.213438e-01
-1.195621e-01
-1.203440e-01
-1.220715e-01
-1.232971e-01
1.610213e+00
2.325676e+00
2.550446e+00
2.605506e+00
2.628040e+00
2.640549e+00
2.650011e+00
2.658215e+00
2.665512e+00
2.671883e+00
2.677281e+00
2.681711e+00
2.685212e+00
2.687861e+00
2.689755e+00
2.691035e+00
2.691881e+00
2.692542e+00
2.693324e+00
2.694587e+00
2.696695e+00
2.699955e+00
2.704523e+00
2.710317e+00
2.716986e+00
2.723964e+00
2.730605e+00
2.736274e+00
2.740424e+00
2.742995e+00
2.744635e+00
2.745397e+00
4.165481e+00
5.032915e+00
5.353282e+00
5.443312e+00
5.483549e+00
5.505682e+00
5.520553e+00
5.532071e+00
5.541593e+00
5.549544e+00
5.556084e+00
5.561288e+00
5.565242e+00
5.568032e+00
5.569774e+00
5.570607e+00
5.570719e+00
5.570359e+00
5.569848e+00
5.569569e+00
5.569940e+00
5.571352e+00
5.574103e+00
5.578320e+00
5.583903e+00
5.590532e+00
5.597740e+00
5.605019e+00
5.611919e+00
5.618160e+00
5.623324e+00
5.626227e+00
6.668272e+00
7.653022e+00
8.098411e+00
8.244356e+00
8.315521e+00
8.357162e+00
8.384566e+00
8.404481e+00
8.419848e+00
8.432004e+00
8.441590e+00
8.448980e+00
8.454427e+00
8.458143e+00
8.460321e+00
8.461165e+00
8.460903e+00
8.459824e+00
8.458286e+00
8.456727e+00
8.455631e+00
8.455486e+00
8.456711e+00
8.459600e+00
8.464273e+00
8.470661e+00
8.478522e+00
8.487495e+00
8.497127e+00
8.506733e+00
8.514953e+00
8.519708e+00
9.117570e+00
1.015324e+01
1.074167e+01
1.097049e+01
1.108906e+01
1.116337e+01
1.121394e+01
1.125075e+01
1.127886e+01
1.130090e+01
1.131833e+01
1.133196e+01
1.134236e+01
1.134992e+01
1.135498e+01
1.135788e+01
1.135893e+01
1.135851e+01
1.135707e+01
1.135514e+01
1.135334e+01
1.135231e+01
1.135264e+01
1.135480e+01
1.135910e+01
1.136565e+01
1.137438e+01
1.138501e+01
1.139697e+01
1.140914e+01
1.141950e+01
1.142550e+01
1.150797e+01
1.251097e+01
1.323344e+01
1.357240e+01
1.375724e+01
1.387868e+01
1.396521e+01
1.403023e+01
1.408116e+01
1.412224e+01
1.415588e+01
1.418349e+01
1.420593e+01
1.422381e+01
1.423758e+01
1.424769e+01
1.425454e+01
1.425863e+01
1.426052e+01
1.426085e+01
1.426043e+01
1.426010e+01
1.426076e+01
1.426316e+01
1.426786e+01
1.427514e+01
1.428503e+01
1.429719e+01
1.431086e+01
1.432456e+01
1.433598e+01
1.434254e+01
1.383139e+01
1.472344e+01
1.553254e+01
1.599650e+01
1.626766e+01
1.645063e+01
1.658586e+01
1.669113e+01
1.677644e+01
1.684774e+01
1.690854e+01
1.696089e+01
1.700594e+01
1.704440e+01
1.707675e+01
1.710340e+01
1.712477e+01
1.714133e+01
1.715365e+01
1.716244e+01
1.716857e+01
1.717309e+01
1.717716e+01
1.718194e+01
1.718842e+01
1.719724e+01
1.720859e+01
1.722213e+01
1.723689e+01
1.725123e+01
1.726284e+01
1.726940e+01
1.607057e+01
1.680467e+01
1.762336e+01
1.819848e+01
1.857031e+01
1.882886e+01
1.902432e+01
1.918066e+01
1.931098e+01
1.942319e+01
1.952208e+01
1.961043e+01
1.968974e+01
1.976080e+01
1.982403e+01
1.987969e+01
1.992802e+01
1.996928e+01
2.000387e+01
2.003230e+01
2.005529e+01
2.007376e+01
2.008889e+01
2.010203e+01
2.011453e+01
2.012754e+01
2.014171e+01
2.015700e+01
2.017263e+01
2.018708e+01
2.019839e+01
2.020464e+01
1.820623e+01
1.877226e+01
1.952285e+01
2.016060e+01
2.062861e+01
2.097196e+01
2.123736e+01
2.145356e+01
2.163726e+01
2.179867e+01
2.194415e+01
2.207744e+01
2.220061e+01
2.231466e+01
2.242002e+01
2.251680e+01
2.260501e+01
2.268463e+01
2.275570e+01
2.281837e+01
2.287291e+01
2.291982e+01
2.295982e+01
2.299389e+01
2.302321e+01
2.304899e+01
2.307226e+01
2.309351e+01
2.311259e+01
2.312866e+01
2.314047e+01
2.314676e+01
2.022093e+01
2.063574e+01
2.126715e+01
2.190058e+01
2.243281e+01
2.285561e+01
2.319479e+01
2.347638e+01
2.371894e+01
2.393479e+01
2.413194e+01
2.431541e+01
2.448808e+01
2.465143e+01
2.480610e+01
2.495220e+01
2.508962e+01
2.521813e+01
2.533745e+01
2.544735e+01
2.554763e+01
2.563820e+01
2.571911e+01
2.579060e+01
2.585308e+01
2.590713e+01
2.595335e+01
2.599223e+01
2.602398e+01
2.604847e+01
2.606524e+01
2.607380e+01
2.210546e+01
2.239744e+01
2.289230e+01
2.346224e+01
2.400708e+01
2.448268e+01
2.488621e+01
2.523132e+01
2.553344e+01
2.580507e+01
2.605530e+01
2.629024e+01
2.651375e+01
2.672799e+01
2.693402e+01
2.713218e+01
2.732239e+01
2.750434e+01
2.767757e+01
2.784157e+01
2.799576e+01
2.813955e+01
2.827236e+01
2.839363e+01
2.850286e+01
2.859961e+01
2.868349e+01
2.875415e+01
2.881124e+01
2.885445e+01
2.888348e+01
2.889807e+01
2.386902e+01
2.406696e+01
2.443180e+01
2.490207e+01
2.540626e+01
2.589094e+01
2.633153e+01
2.672494e+01
2.707805e+01
2.740009e+01
2.769937e+01
2.798231e+01
2.825335e+01
2.851531e+01
2.876974e+01
2.901730e+01
2.925808e+01
2.949178e+01
2.971784e+01
2.993554e+01
3.014401e+01
3.034223e+01
3.052908e+01
3.070331e+01
3.086355e+01
3.100834e+01
3.113618e+01
3.124553e+01
3.133496e+01
3.140321e+01
3.144927e+01
3.147247e+01
2.556271e+01
2.569007e+01
2.594146e+01
2.629716e+01
2.671848e+01
2.716223e+01
2.759648e+01
2.800548e+01
2.838580e+01
2.874048e+01
2.907472e+01
2.939371e+01
2.970163e+01
3.000145e+01
3.029502e+01
3.058325e+01
3.086636e+01
3.114407e+01
3.141572e+01
3.168036e+01
3.193681e+01
3.218363e+01
3.241915e+01
3.264146e+01
3.284840e+01
3.303761e+01
3.320655e+01
3.335258e+01
3.347314e+01
3.356587e+01
3.362885e+01
3.366069e+01
2.733180e+01
2.740463e+01
2.755811e+01
2.779485e+01
2.810216e+01
2.845515e+01
2.882747e+01
2.919975e+01
2.956172e+01
2.991020e+01
3.024609e+01
3.057198e+01
3.089070e+01
3.120466e+01
3.151551e+01
3.182416e+01
3.213082e+01
3.243516e+01
3.273635e+01
3.303314e+01
3.332396e+01
3.360684e+01
3.387950e+01
3.413930e+01
3.438328e+01
3.460817e+01
3.481045e+01
3.498647e+01
3.513265e+01
3.524567e+01
3.532272e+01
3.536178e+01
2.952830e+01
2.955469e+01
2.961791e+01
2.972980e+01
2.989409e+01
3.010366e+01
3.034496e+01
3.060406e+01
3.087070e+01
3.113913e+01
3.140723e+01
3.167511e+01
3.194392e+01
3.221503e+01
3.248961e+01
3.276837e+01
3.305146e+01
3.333851e+01
3.362860e+01
3.392030e+01
3.421167e+01
3.450028e+01
3.478320e+01
3.505698e+01
3.531771e+01
3.556106e+01
3.578234e+01
3.597672e+01
3.613941e+01
3.626597e+01
3.635265e+01
3.639670e+01
3.294321e+01
3.292515e+01
3.289717e+01
3.287116e+01
3.285722e+01
3.286036e+01
3.288057e+01
3.291509e+01
3.296070e+01
3.301516e+01
3.307750e+01
3.314785e+01
3.322697e+01
3.331596e+01
3.341592e+01
3.352777e+01
3.365220e+01
3.378950e+01
3.393954e+01
3.410171e+01
3.427483e+01
3.445712e+01
3.464610e+01
3.483854e+01
3.503046e+01
3.521710e+01
3.539306e+01
3.555248e+01
3.568936e+01
3.579801e+01
3.587350e+01
3.591221e+01
3.925638e+01
3.920387e+01
3.909799e+01
3.893806e+01
3.872500e+01
3.846219e+01
3.815545e+01
3.781217e+01
3.744008e+01
3.704616e+01
3.663602e+01
3.621378e+01
3.578227e+01
3.534341e+01
3.489861e+01
3.444910e+01
3.399620e+01
3.354152e+01
3.308706e+01
3.263531e+01
3.218934e+01
3.175279e+01
3.132994e+01
3.092566e+01
3.054533e+01
3.019472e+01
2.987979e+01
2.960642e+01
2.938014e+01
2.920579e+01
2.908727e+01
2.902731e+01
</DataArray>
<DataArray type='Float32' Name='dTdx' Format='ascii'> 
5.027337e-02
1.352233e-01
1.898815e-01
2.177366e-01
2.261073e-01
2.199555e-01
2.032513e-01
1.800192e-01
1.541902e-01
1.285582e-01
1.050386e-01
8.412664e-02
6.634132e-02
5.084455e-02
3.816344e-02
2.651620e-02
1.756662e-02
8.075219e-03
2.197956e-03
-6.137290e-03
-8.355413e-03
-1.568473e-02
-1.249957e-02
-1.809664e-02
-6.064476e-03
-6.310136e-03
2.441447e-02
4.292307e-02
1.193872e-01
1.783342e-01
3.348997e-01
2.731085e-01
1.003075e-01
2.373563e-01
2.740575e-01
2.615608e-01
2.483473e-01
2.474570e-01
2.514249e-01
2.501911e-01
2.392313e-01
2.188746e-01
1.926063e-01
1.634164e-01
1.347622e-01
1.071365e-01
8.304903e-02
6.005821e-02
4.203538e-02
2.303135e-02
1.158615e-02
-4.364619e-03
-7.205727e-03
-2.045604e-02
-1.116198e-02
-2.212367e-02
4.902925e-03
-1.311110e-03
6.132703e-02
8.237112e-02
2.527698e-01
3.867540e-01
8.722710e-01
7.597067e-01
1.952184e-01
4.079171e-01
3.599743e-01
2.088751e-01
8.276354e-02
1.982005e-02
1.099779e-02
3.288225e-02
6.354229e-02
8.856241e-02
1.023481e-01
1.046503e-01
9.884284e-02
8.751174e-02
7.464863e-02
6.034843e-02
4.865072e-02
3.609286e-02
2.956555e-02
2.003240e-02
2.133041e-02
1.351798e-02
2.394027e-02
1.275863e-02
3.380798e-02
1.359226e-02
5.909258e-02
4.173210e-02
2.066486e-01
3.493069e-01
1.147187e+00
1.089906e+00
3.570502e-01
7.117037e-01
5.892224e-01
3.282661e-01
1.232327e-01
-3.097516e-03
-6.813520e-02
-8.701284e-02
-7.436371e-02
-4.598833e-02
-1.504125e-02
1.048194e-02
2.813749e-02
3.830725e-02
4.348055e-02
4.509541e-02
4.599080e-02
4.563062e-02
4.732365e-02
4.692762e-02
5.012905e-02
4.606457e-02
4.820211e-02
3.409608e-02
3.638230e-02
7.479729e-03
2.080692e-02
-2.426497e-02
8.323807e-02
2.106512e-01
1.222473e+00
1.238300e+00
5.331201e-01
9.768389e-01
6.939584e-01
3.226133e-01
1.069406e-01
1.321686e-03
-5.640503e-02
-8.882435e-02
-9.933333e-02
-9.056320e-02
-6.919401e-02
-4.324268e-02
-1.857182e-02
1.972984e-03
1.807351e-02
3.033745e-02
3.999801e-02
4.731737e-02
5.282493e-02
5.458936e-02
5.315701e-02
4.530585e-02
3.665898e-02
2.142388e-02
1.351521e-02
-8.088435e-03
-1.266754e-02
-5.922474e-02
-2.001252e-02
1.023603e-01
1.204281e+00
1.248555e+00
7.413125e-01
1.242167e+00
7.337108e-01
2.598482e-01
5.955637e-02
-9.320400e-03
-4.150649e-02
-6.418542e-02
-7.890369e-02
-8.212911e-02
-7.333322e-02
-5.599062e-02
-3.500039e-02
-1.427409e-02
4.080833e-03
1.930842e-02
3.117229e-02
3.900639e-02
4.163455e-02
3.799323e-02
2.906235e-02
1.732588e-02
7.137926e-03
-7.277497e-04
-3.900120e-03
-1.074149e-02
-1.902308e-02
-5.847191e-02
-7.863978e-02
5.892642e-02
1.156524e+00
1.180542e+00
9.631694e-01
1.460233e+00
6.743579e-01
1.451246e-01
7.017407e-03
-1.210936e-02
-2.110009e-02
-3.541646e-02
-5.024804e-02
-5.930917e-02
-5.918562e-02
-5.033682e-02
-3.584450e-02
-1.929798e-02
-3.430030e-03
9.922745e-03
1.902207e-02
2.191343e-02
1.761622e-02
7.846434e-03
-3.039439e-03
-1.049940e-02
-1.239990e-02
-9.778865e-03
-5.182993e-03
-2.547621e-03
-8.944705e-03
-4.382022e-02
-1.022836e-01
6.486038e-02
1.102015e+00
1.079348e+00
1.201608e+00
1.649685e+00
5.642511e-01
3.327032e-02
-2.796694e-02
-9.780779e-03
-3.584241e-03
-1.127448e-02
-2.506633e-02
-3.725274e-02
-4.286114e-02
-4.065147e-02
-3.231529e-02
-2.073631e-02
-8.799980e-03
5.521711e-04
4.267959e-03
7.196611e-04
-8.244686e-03
-1.766541e-02
-2.263600e-02
-2.125915e-02
-1.505799e-02
-7.205265e-03
-2.042409e-04
4.712109e-03
1.001180e-03
-3.257811e-02
-1.040246e-01
9.807273e-02
1.046137e+00
9.703638e-01
1.445525e+00
1.803952e+00
4.228470e-01
-5.091290e-02
-3.813189e-02
-5.044946e-03
4.878720e-03
1.412487e-03
-9.662856e-03
-2.213211e-02
-3.069621e-02
-3.291497e-02
-2.913864e-02
-2.143125e-02
-1.305073e-02
-8.073513e-03
-9.452698e-03
-1.639850e-02
-2.446265e-02
-2.881663e-02
-2.720048e-02
-2.035697e-02
-1.105406e-02
-2.583942e-03
3.384067e-03
7.230031e-03
4.273068e-03
-2.952856e-02
-9.215466e-02
1.433680e-01
9.897039e-01
8.649196e-01
1.693757e+00
1.944685e+00
2.884807e-01
-9.391617e-02
-3.483175e-02
-2.666153e-03
6.657373e-03
4.692711e-03
-4.064091e-03
-1.526850e-02
-2.437311e-02
-2.830483e-02
-2.637718e-02
-2.046270e-02
-1.467285e-02
-1.328227e-02
-1.746015e-02
-2.437004e-02
-2.983438e-02
-3.108006e-02
-2.717058e-02
-1.876470e-02
-8.391421e-03
3.014599e-04
5.206768e-03
6.963244e-03
1.799550e-03
-3.159530e-02
-7.060250e-02
1.922528e-01
9.325904e-01
7.666661e-01
1.937735e+00
2.079881e+00
1.760734e-01
-1.071902e-01
-3.553419e-02
-5.491388e-03
4.829048e-03
3.030195e-03
-4.463174e-03
-1.391973e-02
-2.144286e-02
-2.404838e-02
-2.126686e-02
-1.584189e-02
-1.229387e-02
-1.357570e-02
-1.901736e-02
-2.573410e-02
-3.100985e-02
-3.280023e-02
-2.950216e-02
-2.088761e-02
-9.346311e-03
7.041020e-04
5.827345e-03
5.574426e-03
-3.220938e-03
-3.323015e-02
-4.087928e-02
2.401711e-01
8.742507e-01
6.757733e-01
2.171841e+00
2.228051e+00
1.074781e-01
-9.879942e-02
-4.753243e-02
-1.334125e-02
-9.805141e-04
-1.263100e-03
-6.815909e-03
-1.325215e-02
-1.710008e-02
-1.645557e-02
-1.224844e-02
-7.936525e-03
-7.019721e-03
-1.057163e-02
-1.729231e-02
-2.520625e-02
-3.236355e-02
-3.646459e-02
-3.514732e-02
-2.738391e-02
-1.501265e-02
-2.787151e-03
4.192684e-03
3.383798e-03
-7.434124e-03
-2.942320e-02
-3.815200e-03
2.842596e-01
8.136832e-01
5.911175e-01
2.382814e+00
2.396508e+00
9.374523e-02
-7.625699e-02
-6.721578e-02
-2.427583e-02
-1.153532e-02
-6.523891e-03
-8.187786e-03
-9.655649e-03
-9.067616e-03
-5.800572e-03
-1.807811e-03
1.650058e-04
-1.574002e-03
-6.961083e-03
-1.501711e-02
-2.456798e-02
-3.402784e-02
-4.106236e-02
-4.292986e-02
-3.767909e-02
-2.591129e-02
-1.179597e-02
-1.569174e-03
-2.261653e-05
-8.390405e-03
-1.726585e-02
3.911938e-02
3.219260e-01
7.494643e-01
5.113053e-01
2.554506e+00
2.593138e+00
1.548694e-01
-3.524606e-02
-8.202637e-02
-3.406422e-02
-2.381591e-02
-1.085220e-02
-7.980436e-03
-3.921498e-03
-3.791364e-04
3.520885e-03
5.877007e-03
5.574322e-03
2.147268e-03
-4.149285e-03
-1.290916e-02
-2.353855e-02
-3.487682e-02
-4.488195e-02
-5.073071e-02
-4.966575e-02
-4.070190e-02
-2.636833e-02
-1.259387e-02
-5.450935e-03
-5.613410e-03
3.022635e-03
8.472619e-02
3.499573e-01
6.799679e-01