<VTKFile type='UnstructuredGrid' version='0.1' byte_order='BigEndian'> 
<UnstructuredGrid> 
<Piece NumberOfPoints=' 16471 ' NumberOfCells=' 16200 '> 
<Points> 
<DataArray type='Float32' NumberOfComponents='3' Format='ascii'> 
0.000000e+00 9.000000e+01 0.000000e+00 
2.000000e+00 9.000000e+01 0.000000e+00 
4.000000e+00 9.000000e+01 0.000000e+00 
6.000000e+00 9.000000e+01 0.000000e+00 
8.000000e+00 9.000000e+01 0.000000e+00 
1.000000e+01 9.000000e+01 0.000000e+00 
1.200000e+01 9.000000e+01 0.000000e+00 
1.400000e+01 9.000000e+01 0.000000e+00 
1.600000e+01 9.000000e+01 0.000000e+00 
1.800000e+01 9.000000e+01 0.000000e+00 
2.000000e+01 9.000000e+01 0.000000e+00 
2.200000e+01 9.000000e+01 0.000000e+00 
2.400000e+01 9.000000e+01 0.000000e+00 
2.600000e+01 9.000000e+01 0.000000e+00 
2.800000e+01 9.000000e+01 0.000000e+00 
3.000000e+01 9.000000e+01 0.000000e+00 
3.200000e+01 9.000000e+01 0.000000e+00 
3.400000e+01 9.000000e+01 0.000000e+00 
3.600000e+01 9.000000e+01 0.000000e+00 
3.800000e+01 9.000000e+01 0.000000e+00 
4.000000e+01 9.000000e+01 0.000000e+00 
4.200000e+01 9.000000e+01 0.000000e+00 
4.400000e+01 9.000000e+01 0.000000e+00 
4.600000e+01 9.000000e+01 0.000000e+00 
4.800000e+01 9.000000e+01 0.000000e+00 
5.000000e+01 9.000000e+01 0.000000e+00 
5.200000e+01 9.000000e+01 0.000000e+00 
5.400000e+01 9.000000e+01 0.000000e+00 
5.600000e+01 9.000000e+01 0.000000e+00 
5.800000e+01 9.000000e+01 0.000000e+00 
6.000000e+01 9.000000e+01 0.000000e+00 
6.200000e+01 9.000000e+01 0.000000e+00 
6.400000e+01 9.000000e+01 0.000000e+00 
6.600000e+01 9.000000e+01 0.000000e+00 
6.800000e+01 9.000000e+01 0.000000e+00 
7.000000e+01 9.000000e+01 0.000000e+00 
7.200000e+01 9.000000e+01 0.000000e+00 
7.400000e+01 9.000000e+01 0.000000e+00 
7.600000e+01 9.000000e+01 0.000000e+00 
7.800000e+01 9.000000e+01 0.000000e+00 
8.000000e+01 9.000000e+01 0.000000e+00 
8.200000e+01 9.000000e+01 0.000000e+00 
8.400000e+01 9.000000e+01 0.000000e+00 
8.600000e+01 9.000000e+01 0.000000e+00 
8.800000e+01 9.000000e+01 0.000000e+00 
9.000000e+01 9.000000e+01 0.000000e+00 
9.200000e+01 9.000000e+01 0.000000e+00 
9.400000e+01 9.000000e+01 0.000000e+00 
9.600000e+01 9.000000e+01 0.000000e+00 
9.800000e+01 9.000000e+01 0.000000e+00 
1.000000e+02 9.000000e+01 0.000000e+00 
1.020000e+02 9.000000e+01 0.000000e+00 
1.040000e+02 9.000000e+01 0.000000e+00 
1.060000e+02 9.000000e+01 0.000000e+00 
1.080000e+02 9.000000e+01 0.000000e+00 
1.100000e+02 9.000000e+01 0.000000e+00 
1.120000e+02 9.000000e+01 0.000000e+00 
1.140000e+02 9.000000e+01 0.000000e+00 
1.160000e+02 9.000000e+01 0.000000e+00 
1.180000e+02 9.000000e+01 0.000000e+00 
1.200000e+02 9.000000e+01 0.000000e+00 
1.220000e+02 9.000000e+01 0.000000e+00 
1.240000e+02 9.000000e+01 0.000000e+00 
1.260000e+02 9.000000e+01 0.000000e+00 
1.280000e+02 9.000000e+01 0.000000e+00 
1.300000e+02 9.000000e+01 0.000000e+00 
1.320000e+02 9.000000e+01 0.000000e+00 
1.340000e+02 9.000000e+01 0.000000e+00 
1.360000e+02 9.000000e+01 0.000000e+00 
1.380000e+02 9.000000e+01 0.000000e+00 
1.400000e+02 9.000000e+01 0.000000e+00 
1.420000e+02 9.000000e+01 0.000000e+00 
1.440000e+02 9.000000e+01 0.000000e+00 
1.460000e+02 9.000000e+01 0.000000e+00 
1.480000e+02 9.000000e+01 0.000000e+00 
1.500000e+02 9.000000e+01 0.000000e+00 
1.520000e+02 9.000000e+01 0.000000e+00 
1.540000e+02 9.000000e+01 0.000000e+00 
1.560000e+02 9.000000e+01 0.000000e+00 
1.580000e+02 9.000000e+01 0.000000e+00 
1.600000e+02 9.000000e+01 0.000000e+00 
1.620000e+02 9.000000e+01 0.000000e+00 
1.640000e+02 9.000000e+01 0.000000e+00 
1.660000e+02 9.000000e+01 0.000000e+00 
1.680000e+02 9.000000e+01 0.000000e+00 
1.700000e+02 9.000000e+01 0.000000e+00 
1.720000e+02 9.000000e+01 0.000000e+00 
1.740000e+02 9.000000e+01 0.000000e+00 
1.760000e+02 9.000000e+01 0.000000e+00 
1.780000e+02 9.000000e+01 0.000000e+00 
1.800000e+02 9.000000e+01 0.000000e+00 
1.820000e+02 9.000000e+01 0.000000e+00 
1.840000e+02 9.000000e+01 0.000000e+00 
1.860000e+02 9.000000e+01 0.000000e+00 
1.880000e+02 9.000000e+01 0.000000e+00 
1.900000e+02 9.000000e+01 0.000000e+00 
1.920000e+02 9.000000e+01 0.000000e+00 
1.940000e+02 9.000000e+01 0.000000e+00 
1.960000e+02 9.000000e+01 0.000000e+00 
1.980000e+02 9.000000e+01 0.000000e+00 
2.000000e+02 9.000000e+01 0.000000e+00 
2.020000e+02 9.000000e+01 0.000000e+00 
2.040000e+02 9.000000e+01 0.000000e+00 
2.060000e+02 9.000000e+01 0.000000e+00 
2.080000e+02 9.000000e+01 0.000000e+00 
2.100000e+02 9.000000e+01 0.000000e+00 
2.120000e+02 9.000000e+01 0.000000e+00 
2.140000e+02 9.000000e+01 0.000000e+00 
2.160000e+02 9.000000e+01 0.000000e+00 
2.180000e+02 9.000000e+01 0.000000e+00 
2.200000e+02 9.000000e+01 0.000000e+00 
2.220000e+02 9.000000e+01 0.000000e+00 
2.240000e+02 9.000000e+01 0.000000e+00 
2.260000e+02 9.000000e+01 0.000000e+00 
2.280000e+02 9.000000e+01 0.000000e+00 
2.300000e+02 9.000000e+01 0.000000e+00 
2.320000e+02 9.000000e+01 0.000000e+00 
2.340000e+02 9.000000e+01 0.000000e+00 
2.360000e+02 9.000000e+01 0.000000e+00 
2.380000e+02 9.000000e+01 0.000000e+00 
2.400000e+02 9.000000e+01 0.000000e+00 
2.420000e+02 9.000000e+01 0.000000e+00 
2.440000e+02 9.000000e+01 0.000000e+00 
2.460000e+02 9.000000e+01 0.000000e+00 
2.480000e+02 9.000000e+01 0.000000e+00 
2.500000e+02 9.000000e+01 0.000000e+00 
2.520000e+02 9.000000e+01 0.000000e+00 
2.540000e+02 9.000000e+01 0.000000e+00 
2.560000e+02 9.000000e+01 0.000000e+00 
2.580000e+02 9.000000e+01 0.000000e+00 
2.600000e+02 9.000000e+01 0.000000e+00 
2.620000e+02 9.000000e+01 0.000000e+00 
2.640000e+02 9.000000e+01 0.000000e+00 
2.660000e+02 9.000000e+01 0.000000e+00 
2.680000e+02 9.000000e+01 0.000000e+00 
2.700000e+02 9.000000e+01 0.000000e+00 
2.720000e+02 9.000000e+01 0.000000e+00 
2.740000e+02 9.000000e+01 0.000000e+00 
2.760000e+02 9.000000e+01 0.000000e+00 
2.780000e+02 9.000000e+01 0.000000e+00 
2.800000e+02 9.000000e+01 0.000000e+00 
2.820000e+02 9.000000e+01 0.000000e+00 
2.840000e+02 9.000000e+01 0.000000e+00 
2.860000e+02 9.000000e+01 0.000000e+00 
2.880000e+02 9.000000e+01 0.000000e+00 
2.900000e+02 9.000000e+01 0.000000e+00 
2.920000e+02 9.000000e+01 0.000000e+00 
2.940000e+02 9.000000e+01 0.000000e+00 
2.960000e+02 9.000000e+01 0.000000e+00 
2.980000e+02 9.000000e+01 0.000000e+00 
3.000000e+02 9.000000e+01 0.000000e+00 
3.020000e+02 9.000000e+01 0.000000e+00 
3.040000e+02 9.000000e+01 0.000000e+00 
3.060000e+02 9.000000e+01 0.000000e+00 
3.080000e+02 9.000000e+01 0.000000e+00 
3.100000e+02 9.000000e+01 0.000000e+00 
3.120000e+02 9.000000e+01 0.000000e+00 
3.140000e+02 9.000000e+01 0.000000e+00 
3.160000e+02 9.000000e+01 0.000000e+00 
3.180000e+02 9.000000e+01 0.000000e+00 
3.200000e+02 9.000000e+01 0.000000e+00 
3.220000e+02 9.000000e+01 0.000000e+00 
3.240000e+02 9.000000e+01 0.000000e+00 
3.260000e+02 9.000000e+01 0.000000e+00 
3.280000e+02 9.000000e+01 0.000000e+00 
3.300000e+02 9.000000e+01 0.000000e+00 
3.320000e+02 9.000000e+01 0.000000e+00 
3.340000e+02 9.000000e+01 0.000000e+00 
3.360000e+02 9.000000e+01 0.000000e+00 
3.380000e+02 9.000000e+01 0.000000e+00 
3.400000e+02 9.000000e+01 0.000000e+00 
3.420000e+02 9.000000e+01 0.000000e+00 
3.440000e+02 9.000000e+01 0.000000e+00 
3.460000e+02 9.000000e+01 0.000000e+00 
3.480000e+02 9.000000e+01 0.000000e+00 
3.500000e+02 9.000000e+01 0.000000e+00 
3.520000e+02 9.000000e+01 0.000000e+00 
3.540000e+02 9.000000e+01 0.000000e+00 
3.560000e+02 9.000000e+01 0.000000e+00 
3.580000e+02 9.000000e+01 0.000000e+00 
3.600000e+02 9.000000e+01 0.000000e+00 
0.000000e+00 8.800000e+01 0.000000e+00 
2.000000e+00 8.800000e+01 0.000000e+00 
4.000000e+00 8.800000e+01 0.000000e+00 
6.000000e+00 8.800000e+01 0.000000e+00 
8.000000e+00 8.800000e+01 0.000000e+00 
1.000000e+01 8.800000e+01 0.000000e+00 
1.200000e+01 8.800000e+01 0.000000e+00 
1.400000e+01 8.800000e+01 0.000000e+00 
1.600000e+01 8.800000e+01 0.000000e+00 
1.800000e+01 8.800000e+01 0.000000e+00 
2.000000e+01 8.800000e+01 0.000000e+00 
2.200000e+01 8.800000e+01 0.000000e+00 
2.400000e+01 8.800000e+01 0.000000e+00 
2.600000e+01 8.800000e+01 0.000000e+00 
2.800000e+01 8.800000e+01 0.000000e+00 
3.000000e+01 8.800000e+01 0.000000e+00 
3.200000e+01 8.800000e+01 0.000000e+00 
3.400000e+01 8.800000e+01 0.000000e+00 
3.600000e+01 8.800000e+01 0.000000e+00 
3.800000e+01 8.800000e+01 0.000000e+00 
4.000000e+01 8.800000e+01 0.000000e+00 
4.200000e+01 8.800000e+01 0.000000e+00 
4.400000e+01 8.800000e+01 0.000000e+00 
4.600000e+01 8.800000e+01 0.000000e+00 
4.800000e+01 8.800000e+01 0.000000e+00 
5.000000e+01 8.800000e+01 0.000000e+00 
5.200000e+01 8.800000e+01 0.000000e+00 
5.400000e+01 8.800000e+01 0.000000e+00 
5.600000e+01 8.800000e+01 0.000000e+00 
5.800000e+01 8.800000e+01 0.000000e+00 
6.000000e+01 8.800000e+01 0.000000e+00 
6.200000e+01 8.800000e+01 0.000000e+00 
6.400000e+01 8.800000e+01 0.000000e+00 
6.600000e+01 8.800000e+01 0.000000e+00 
6.800000e+01 8.800000e+01 0.000000e+00 
7.000000e+01 8.800000e+01 0.000000e+00 
7.200000e+01 8.800000e+01 0.000000e+00 
7.400000e+01 8.800000e+01 0.000000e+00 
7.600000e+01 8.800000e+01 0.000000e+00 
7.800000e+01 8.800000e+01 0.000000e+00 
8.000000e+01 8.800000e+01 0.000000e+00 
8.200000e+01 8.800000e+01 0.000000e+00 
8.400000e+01 8.800000e+01 0.000000e+00 
8.600000e+01 8.800000e+01 0.000000e+00 
8.800000e+01 8.800000e+01 0.000000e+00 
9.000000e+01 8.800000e+01 0.000000e+00 
9.200000e+01 8.800000e+01 0.000000e+00 
9.400000e+01 8.800000e+01 0.000000e+00 
9.600000e+01 8.800000e+01 0.000000e+00 
9.800000e+01 8.800000e+01 0.000000e+00 
1.000000e+02 8.800000e+01 0.000000e+00 
1.020000e+02 8.800000e+01 0.000000e+00 
1.040000e+02 8.800000e+01 0.000000e+00 
1.060000e+02 8.800000e+01 0.000000e+00 
1.080000e+02 8.800000e+01 0.000000e+00 
1.100000e+02 8.800000e+01 0.000000e+00 
1.120000e+02 8.800000e+01 0.000000e+00 
1.140000e+02 8.800000e+01 0.000000e+00 
1.160000e+02 8.800000e+01 0.000000e+00 
1.180000e+02 8.800000e+01 0.000000e+00 
1.200000e+02 8.800000e+01 0.000000e+00 
1.220000e+02 8.800000e+01 0.000000e+00 
1.240000e+02 8.800000e+01 0.000000e+00 
[...]
<PointData Scalars='scalars'>
<DataArray type='Float32' Name='g' Format='ascii'> 
6.063205e-02 
6.063205e-02 
6.063205e-02 
6.063205e-02 
6.063205e-02 
6.063205e-02 
6.063205e-02 
6.063205e-02 
6.063205e-02 
6.063205e-02 
6.063205e-02 
6.063205e-02 
6.063205e-02 
6.063205e-02 
6.063205e-02 
6.063205e-02 
6.063205e-02 
6.063205e-02 
6.063205e-02 
6.063205e-02 
6.063205e-02 
6.063205e-02 
6.063205e-02 
6.063205e-02 
6.063205e-02 
6.063205e-02 
6.063205e-02 
6.063205e-02 
6.063205e-02 
6.063205e-02 
6.063205e-02 
6.063205e-02 
6.063205e-02 
6.063205e-02 
6.063205e-02 
6.063205e-02 
6.063205e-02 
6.063205e-02 
6.063205e-02 
6.063205e-02 
6.063205e-02 
6.063205e-02 
6.063205e-02 
6.063205e-02 
6.063205e-02 
6.063205e-02 
6.063205e-02 
6.063205e-02 
6.063205e-02 
6.063205e-02 
6.063205e-02 
6.063205e-02 
6.063205e-02 
6.063205e-02 
6.063205e-02 
6.063205e-02 
6.063205e-02 
6.063205e-02 
6.063205e-02 
6.063205e-02 
6.063205e-02 
6.063205e-02 
6.063205e-02 
6.063205e-02 
6.063205e-02 
6.063205e-02 
6.063205e-02 
6.063205e-02 
6.063205e-02 
6.063205e-02 
6.063205e-02 
6.063205e-02 
6.063205e-02 
6.063205e-02 
6.063205e-02 
6.063205e-02 
6.063205e-02 
6.063205e-02 
6.063205e-02 
6.063205e-02 
6.063205e-02 
6.063205e-02 
6.063205e-02 
6.063205e-02 
6.063205e-02 
6.063205e-02 
6.063205e-02 
6.063205e-02 
6.063205e-02 
6.063205e-02 
6.063205e-02 
6.063205e-02 
6.063205e-02 
6.063205e-02 
6.063205e-02 
6.063205e-02 
6.063205e-02 
6.063205e-02 
6.063205e-02 
6.063205e-02 
6.063205e-02 
6.063205e-02 
6.063205e-02 
6.063205e-02 
6.063205e-02 
6.063205e-02 
6.063205e-02 
6.063205e-02 
6.063205e-02 
6.063205e-02 
6.063205e-02 
6.063205e-02 
6.063205e-02 
6.063205e-02 
6.063205e-02 
6.063205e-02 
6.063205e-02 
6.063205e-02 
6.063205e-02 
6.063205e-02 
6.063205e-02 
6.063205e-02 
6.063205e-02 
6.063205e-02 
6.063205e-02 
6.063205e-02 
6.063205e-02 
6.063205e-02 
6.063205e-02 
6.063205e-02 
6.063205e-02 
6.063205e-02 
6.063205e-02 
6.063205e-02 
6.063205e-02 
6.063205e-02 
6.063205e-02 
6.063205e-02 
6.063205e-02 
6.063205e-02 
6.063205e-02 
6.063205e-02 
6.063205e-02 
6.063205e-02 
6.063205e-02 
6.063205e-02 
6.063205e-02 
6.063205e-02 
6.063205e-02 
6.063205e-02 
6.063205e-02 
6.063205e-02 
6.063205e-02 
6.063205e-02 
6.063205e-02 
6.063205e-02 
6.063205e-02 
6.063205e-02 
6.063205e-02 
6.063205e-02 
6.063205e-02 
6.063205e-02 
6.063205e-02 
6.063205e-02 
6.063205e-02 
6.063205e-02 
6.063205e-02 
6.063205e-02 
6.063205e-02 
6.063205e-02 
6.063205e-02 
6.063205e-02 
6.063205e-02 
6.063205e-02 
6.063205e-02 
6.063205e-02 
6.063205e-02 
6.063205e-02 
6.063205e-02 
6.063205e-02 
6.063205e-02 
6.063477e-02 
6.063314e-02 
6.063156e-02 
6.063003e-02 
6.062854e-02 
6.062709e-02 
6.062569e-02 
6.062433e-02 
6.062302e-02 
6.062175e-02 
6.062051e-02 
6.061932e-02 
6.061817e-02 
6.061706e-02 
6.061599e-02 
6.061495e-02 
6.061394e-02 
6.061298e-02 
6.061204e-02 
6.061114e-02 
6.061028e-02 
6.060944e-02 
6.060864e-02 
6.060787e-02 
6.060713e-02 
6.060643e-02 
6.060576e-02 
6.060512e-02 
6.060452e-02 
6.060396e-02 
6.060343e-02 
6.060294e-02 
6.060249e-02 
6.060208e-02 
6.060172e-02 
6.060140e-02 
6.060113e-02 
6.060091e-02 
6.060073e-02 
6.060061e-02 
6.060055e-02 
6.060054e-02 
6.060059e-02 
6.060070e-02 
6.060088e-02 
6.060111e-02 
6.060142e-02 
6.060179e-02 
6.060222e-02 
6.060273e-02 
6.060331e-02 
6.060396e-02 
6.060468e-02 
6.060548e-02 
6.060635e-02 
6.060729e-02 
6.060831e-02 
6.060941e-02 
6.061058e-02 
6.061183e-02 
6.061316e-02 
6.061456e-02 
6.061604e-02 
6.061759e-02 
6.061922e-02 
6.062092e-02 
6.062269e-02 
6.062453e-02 
6.062645e-02 
6.062843e-02 
6.063047e-02 
6.063258e-02 
6.063475e-02 
6.063698e-02 
6.063926e-02 
6.064159e-02 
6.064396e-02 
6.064638e-02 
6.064884e-02 
6.065134e-02 
6.065386e-02 
6.065641e-02 
6.065898e-02 
6.066157e-02 
6.066417e-02 
6.066677e-02 
6.066938e-02 
6.067198e-02 
6.067458e-02 
6.067716e-02 
6.067972e-02 
6.068225e-02 
6.068476e-02 
6.068723e-02 
6.068967e-02 
6.069206e-02 
6.069441e-02 
6.069670e-02 
6.069893e-02 
6.070110e-02 
6.070321e-02 
6.070525e-02 
6.070721e-02 
6.070910e-02 
6.071091e-02 
6.071263e-02 
6.071427e-02 
6.071582e-02 
6.071727e-02 
6.071863e-02 
6.071990e-02 
6.072107e-02 
6.072214e-02 
6.072311e-02 
6.072397e-02 
6.072474e-02 
6.072541e-02 
6.072597e-02 
6.072643e-02 
6.072680e-02 
6.072706e-02 
6.072723e-02 
6.072729e-02 
6.072726e-02 
6.072714e-02 
6.072692e-02 
6.072661e-02 
6.072621e-02 
6.072573e-02 
6.072515e-02 
6.072449e-02 
6.072375e-02 
6.072293e-02 
6.072203e-02 
6.072105e-02 
6.071999e-02 
6.071886e-02 
6.071766e-02 
6.071638e-02 
6.071504e-02 
6.071363e-02 
6.071216e-02 
6.071062e-02 
6.070902e-02 
6.070736e-02 
6.070565e-02 
6.070388e-02 
6.070205e-02 
6.070018e-02 
6.069826e-02 
6.069630e-02 
6.069429e-02 
6.069225e-02 
6.069018e-02 
6.068807e-02 
6.068594e-02 
6.068378e-02 
6.068160e-02 
6.067941e-02 
6.067721e-02 
6.067501e-02 
6.067279e-02 
6.067058e-02 
6.066838e-02 
6.066618e-02 
6.066400e-02 
6.066183e-02 
6.065969e-02 
6.065756e-02 
6.065546e-02 
6.065339e-02 
6.065136e-02 
6.064935e-02 
6.064739e-02 
6.064546e-02 
6.064357e-02 
6.064172e-02 
6.063992e-02 
6.063816e-02 
6.063644e-02 
6.063477e-02 
6.062973e-02 
6.062770e-02 
6.062588e-02 
6.062426e-02 
6.062283e-02 
6.062158e-02 
6.062050e-02 
6.061959e-02 
6.061882e-02 
6.061818e-02 
6.061766e-02 
6.061724e-02 
6.061691e-02 
6.061665e-02 
6.061645e-02 
6.061628e-02 
6.061613e-02 
6.061599e-02 
6.061584e-02 
6.061567e-02 
6.061546e-02 
6.061520e-02 
6.061489e-02 
6.061451e-02 
6.061405e-02 
6.061353e-02 
6.061292e-02 
6.061224e-02 
6.061149e-02 
6.061067e-02 
6.060979e-02 
6.060886e-02 
6.060789e-02 
6.060689e-02 
6.060588e-02 
6.060486e-02 
6.060385e-02 
6.060287e-02 
6.060192e-02 
6.060102e-02 
6.060018e-02 
6.059940e-02 
6.059871e-02 
6.059810e-02 
6.059758e-02 
6.059717e-02 
6.059687e-02 
6.059668e-02 
6.059661e-02 
6.059667e-02 
6.059686e-02 
6.059718e-02 
6.059765e-02 
6.059826e-02 
6.059902e-02 
6.059993e-02 
6.060100e-02 
6.060222e-02 
6.060361e-02 
6.060517e-02 
6.060690e-02 
6.060881e-02 
6.061091e-02 
6.061319e-02 
6.061567e-02 
6.061835e-02 
6.062124e-02 
6.062434e-02 
6.062765e-02 
6.063118e-02 
6.063492e-02 
6.063888e-02 
6.064304e-02 
6.064739e-02 
6.065193e-02 
6.065664e-02 
6.066151e-02 
6.066651e-02 
6.067163e-02 
6.067684e-02 
6.068213e-02 
6.068747e-02 
6.069285e-02 
6.069824e-02 
6.070364e-02 
6.070902e-02 
6.071438e-02 
6.071970e-02 
6.072497e-02 
6.073018e-02 
6.073532e-02 
6.074039e-02 
6.074537e-02 
6.075026e-02 
6.075506e-02 
6.075974e-02 
6.076431e-02 
6.076875e-02 
6.077305e-02 
6.077720e-02 
6.078119e-02 
6.078501e-02 
6.078865e-02 
6.079210e-02 
6.079535e-02 
6.079838e-02 
6.080121e-02 
6.080381e-02 
6.080618e-02 
6.080832e-02 
6.081022e-02 
6.081189e-02 
6.081332e-02 
6.081451e-02 
6.081548e-02 
6.081621e-02 
6.081673e-02 
6.081703e-02 
6.081712e-02 
6.081702e-02 
6.081674e-02 
6.081629e-02 
6.081568e-02 
6.081492e-02 
6.081404e-02 
6.081303e-02 
6.081192e-02 
6.081071e-02 
6.080941e-02 
6.080803e-02 
6.080657e-02 
6.080504e-02 
6.080344e-02 
6.080175e-02 
6.079999e-02 
6.079815e-02 
6.079621e-02 
6.079417e-02 
6.079203e-02 
6.078977e-02 
6.078739e-02 
6.078487e-02 
6.078221e-02 
6.077940e-02 
6.077644e-02 
6.077331e-02 
6.077002e-02 
6.076657e-02 
6.076294e-02 
6.075916e-02 
6.075521e-02 
6.075111e-02 
6.074686e-02 
6.074247e-02 
6.073795e-02 
6.073332e-02 
6.072858e-02 
6.072376e-02 
6.071887e-02 
6.071393e-02 
6.070895e-02 
6.070396e-02 
6.069898e-02 
6.069402e-02 
6.068910e-02 
6.068425e-02 
6.067948e-02 
6.067482e-02 
6.067027e-02 
6.066587e-02 
6.066161e-02 
6.065753e-02 
6.065362e-02 
6.064990e-02 
6.064638e-02 
6.064307e-02 
6.063997e-02 
6.063709e-02 
6.063442e-02 
6.063196e-02 
6.062973e-02 
6.061980e-02 
6.061814e-02 
6.061708e-02 
6.061662e-02 
6.061672e-02 
6.061735e-02 
6.061845e-02 
6.061997e-02 
6.062186e-02 
6.062404e-02 
6.062645e-02 
6.062903e-02 
6.063170e-02 
6.063439e-02 
6.063705e-02 
6.063962e-02 
6.064205e-02 
6.064430e-02 
6.064632e-02 
6.064809e-02 
6.064959e-02 
6.065078e-02 
6.065167e-02 
6.065224e-02 
6.065247e-02 
6.065239e-02 
6.065198e-02 
6.065125e-02 
6.065023e-02 
6.064893e-02 
6.064738e-02 
6.064559e-02 
6.064361e-02 
6.064147e-02 
6.063921e-02 
6.063685e-02 
6.063444e-02 
6.063201e-02 
6.062958e-02 
6.062718e-02 
6.062483e-02 
6.062254e-02 
6.062034e-02 
6.061821e-02 
6.061618e-02 
6.061423e-02 
6.061239e-02 
6.061064e-02 
6.060900e-02 
6.060748e-02 
6.060607e-02 
6.060481e-02 
6.060369e-02 
6.060275e-02 
6.060199e-02 
6.060144e-02 
6.060111e-02 
6.060102e-02 
6.060118e-02 
6.060161e-02 
6.060232e-02 
6.060333e-02 
6.060464e-02 
6.060626e-02 
6.060823e-02 
6.061056e-02 
6.061326e-02 
6.061637e-02 
6.061990e-02 
6.062388e-02 
6.062831e-02 
6.063319e-02 
6.063852e-02 
6.064427e-02 
6.065041e-02 
6.065689e-02 
6.066364e-02 
6.067063e-02 
6.067776e-02 
6.068499e-02 
6.069226e-02 
6.069952e-02 
6.070672e-02 
6.071383e-02 
6.072084e-02 
6.072772e-02 
6.073449e-02 
6.074114e-02 
6.074769e-02 
6.075416e-02 
6.076055e-02 
6.076689e-02 
6.077319e-02 
6.077945e-02 
6.078568e-02 
6.079186e-02 
6.079799e-02 
6.080402e-02 
6.080992e-02 
6.081568e-02 
6.082124e-02 
6.082658e-02 
6.083167e-02 
6.083650e-02 
6.084105e-02 
6.084532e-02 
6.084929e-02 
6.085297e-02 
6.085636e-02 
6.085943e-02 
6.086220e-02 
6.086464e-02 
6.086674e-02 
6.086848e-02 
6.086985e-02 
6.087085e-02 
6.087147e-02 
6.087173e-02 
6.087163e-02 
6.087122e-02 
6.087051e-02 
6.086955e-02 
6.086839e-02 
6.086706e-02 
6.086562e-02 
6.086409e-02 
6.086252e-02 
6.086090e-02 
6.085927e-02 
6.085763e-02 
6.085597e-02 
6.085428e-02 
6.085257e-02 
6.085081e-02 
6.084900e-02 
6.084712e-02 
6.084518e-02 
6.084314e-02 
6.084101e-02 
6.083876e-02 
6.083638e-02 
6.083386e-02 
6.083117e-02 
6.082829e-02 
6.082521e-02 
6.082190e-02 
6.081836e-02 
6.081456e-02 
6.081050e-02 
6.080618e-02 
6.080158e-02 
6.079670e-02 
6.079156e-02 
6.078615e-02 
6.078048e-02 
6.077455e-02 
6.076839e-02 
6.076200e-02 
6.075539e-02 
6.074859e-02 
6.074161e-02 
6.073446e-02 
6.072718e-02 
6.071978e-02 
6.071230e-02 
6.070476e-02 
6.069721e-02 
6.068969e-02 
6.068225e-02 
6.067494e-02 
6.066783e-02 
6.066097e-02 
6.065443e-02 
6.064827e-02 
6.064255e-02 
6.063733e-02 
6.063263e-02 
6.062851e-02 
6.062499e-02 
6.062208e-02 
6.061980e-02 
6.062126e-02 
6.061941e-02 
6.061902e-02 
6.062009e-02 
6.062254e-02 
6.062630e-02 
6.063123e-02 
6.063718e-02 
6.064395e-02 
6.065133e-02 
6.065908e-02 
6.066697e-02 
6.067477e-02 
6.068227e-02 
6.068928e-02 
6.069565e-02 
6.070128e-02 
6.070610e-02 
6.071009e-02 
6.071324e-02 
6.071561e-02 
6.071725e-02 
6.071822e-02 
6.071860e-02 
6.071846e-02 
6.071786e-02 
6.071685e-02 
6.071546e-02 
6.071371e-02 
6.071160e-02 
6.070916e-02 
6.070639e-02 
6.070331e-02 
6.069995e-02 
6.069635e-02 
6.069254e-02 
6.068860e-02 
6.068458e-02 
6.068055e-02 
6.067654e-02 
6.067262e-02 
6.066881e-02 
6.066513e-02 
6.066158e-02 
6.065813e-02 
6.065476e-02 
6.065142e-02 
6.064807e-02 
6.064467e-02 
6.064119e-02 
6.063761e-02 
6.063396e-02 
6.063024e-02 
6.062651e-02 
6.062282e-02 
6.061923e-02 
6.061582e-02 
6.061264e-02 
6.060976e-02 
6.060724e-02 
6.060512e-02 
6.060346e-02 
6.060227e-02 
6.060159e-02 
6.060142e-02 
6.060180e-02 
6.060272e-02 
6.060421e-02 
6.060629e-02 
6.060896e-02 
6.061224e-02 
6.061613e-02 
6.062061e-02 
6.062567e-02 
6.063124e-02 
6.063728e-02 
6.064370e-02 
6.065044e-02 
6.065741e-02 
6.066454e-02 
6.067176e-02 
6.067904e-02 
6.068634e-02 
6.069363e-02 
6.070092e-02 
6.070821e-02 
6.071550e-02 
6.072281e-02 
6.073016e-02 
6.073757e-02 
6.074508e-02 
6.075271e-02 
6.076048e-02 
6.076844e-02 
6.077659e-02 
6.078493e-02 
6.079345e-02 
6.080209e-02 
6.081080e-02 
6.081949e-02 
6.082806e-02 
6.083642e-02 
6.084448e-02 
6.085217e-02 
6.085944e-02 
6.086625e-02 
6.087258e-02 
6.087840e-02 
6.088369e-02 
6.088841e-02 
6.089250e-02 
6.089593e-02 
6.089864e-02 
6.090059e-02 
6.090177e-02 
6.090217e-02 
6.090184e-02 
6.090082e-02 
6.089922e-02 
6.089714e-02 
6.089469e-02 
6.089201e-02 
6.088924e-02 
6.088649e-02 
6.088387e-02 
6.088147e-02 
6.087932e-02 
6.087746e-02 
6.087585e-02 
6.087448e-02 
6.087328e-02 
6.087222e-02 
6.087124e-02 
6.087031e-02 
6.086942e-02 
6.086856e-02 
6.086775e-02 
6.086699e-02 
6.086628e-02 
6.086563e-02 
6.086500e-02 
6.086438e-02 
6.086372e-02 
6.086299e-02 
6.086214e-02 
6.086111e-02 
6.085986e-02 
6.085834e-02 
6.085652e-02 
6.085435e-02 
6.085182e-02 
6.084890e-02 
6.084557e-02 
6.084183e-02 
6.083766e-02 
6.083306e-02 
6.082803e-02 
6.082255e-02 
6.081662e-02 
6.081021e-02 
6.080331e-02 
6.079589e-02 
6.078794e-02 
6.077943e-02 
6.077035e-02 
6.076070e-02 
6.075049e-02 
6.073978e-02 
6.072864e-02 
6.071718e-02 
6.070554e-02 
6.069391e-02 
6.068247e-02 
6.067144e-02 
6.066103e-02 
6.065145e-02 
6.064288e-02 
6.063547e-02 
6.062934e-02 
6.062458e-02 
6.062126e-02 
6.062296e-02 
6.062000e-02 
6.061963e-02 
6.062190e-02 
6.062675e-02 
6.063408e-02 
6.064366e-02 
6.065521e-02 
6.066835e-02 
6.068261e-02 
6.069749e-02 
6.071245e-02 
6.072696e-02 
6.074054e-02 
6.075281e-02 
6.076345e-02 
6.077231e-02 
6.077931e-02 
6.078453e-02 
6.078811e-02 
6.079026e-02 
6.079124e-02 
6.079130e-02 
6.079068e-02 
6.078958e-02 
6.078814e-02 
6.078644e-02 
6.078450e-02 
6.078232e-02 
6.077984e-02 
6.077701e-02 
6.077379e-02 
6.077014e-02 
6.076608e-02 
6.076163e-02 
6.075688e-02 
6.075191e-02 
6.074684e-02 
6.074178e-02 
6.073686e-02 
6.073217e-02 
6.072778e-02 
6.072370e-02 
6.071993e-02 
6.071640e-02 
6.071300e-02 
6.070959e-02 
6.070602e-02 
6.070212e-02 
6.069777e-02 
6.069284e-02 
6.068730e-02 
6.068112e-02 
6.067438e-02 
6.066717e-02 
6.065963e-02 
6.065192e-02 
6.064422e-02 
6.063672e-02 
6.062959e-02 
6.062297e-02 
6.061701e-02 
6.061177e-02 
6.060734e-02 
6.060372e-02 
6.060092e-02 
6.059892e-02 
6.059768e-02 
6.059716e-02 
6.059730e-02 
6.059805e-02 
6.059937e-02 
6.060121e-02 
6.060353e-02 
6.060632e-02 
6.060954e-02 
6.061319e-02 
6.061726e-02 
6.062172e-02 
6.062658e-02 
6.063184e-02 
6.063748e-02 
6.064354e-02 
6.065004e-02 
6.065702e-02 
6.066449e-02 
6.067246e-02 
6.068092e-02 
6.068982e-02 
6.069912e-02 
6.070875e-02 
6.071868e-02 
6.072890e-02 
6.073943e-02 
6.075031e-02 
6.076159e-02 
6.077328e-02 
6.078539e-02 
6.079784e-02 
6.081052e-02 
6.082327e-02 
6.083588e-02 
6.084816e-02 
6.085989e-02 
6.087088e-02 
6.088096e-02 
6.088999e-02 
6.089781e-02 
6.090433e-02 
6.090944e-02 
6.091307e-02 
6.091520e-02 
6.091584e-02 
6.091511e-02 
6.091316e-02 
6.091023e-02 
6.090661e-02 
6.090258e-02 
6.089843e-02 
6.089440e-02 
6.089068e-02 
6.088741e-02 
6.088468e-02 
6.088253e-02 
6.088096e-02 
6.087995e-02 
6.087943e-02 
6.087933e-02 
6.087953e-02 
6.087994e-02 
6.088045e-02 
6.088101e-02 
6.088155e-02 
6.088206e-02 
6.088256e-02 
6.088305e-02 
6.088358e-02 
6.088415e-02 
6.088477e-02 
6.088547e-02 
6.088624e-02 
6.088707e-02 
6.088798e-02 
6.088894e-02 
6.088992e-02 
6.089089e-02 
6.089178e-02 
6.089251e-02 
6.089301e-02 
6.089321e-02 
6.089303e-02 
6.089240e-02 
6.089129e-02 
6.088966e-02 
6.088748e-02 
6.088473e-02 
6.088137e-02 
6.087739e-02 
6.087275e-02 
6.086740e-02 
6.086131e-02 
6.085441e-02 
6.084666e-02 
6.083801e-02 
6.082840e-02 
6.081781e-02 
6.080620e-02 
6.079358e-02 
6.077999e-02 
6.076548e-02 
6.075020e-02 
6.073436e-02 
6.071823e-02 
6.070216e-02 
6.068653e-02 
6.067176e-02 
6.065823e-02 
6.064631e-02 
6.063629e-02 
6.062844e-02 
6.062296e-02 
6.061166e-02 
6.060886e-02 
6.060943e-02 
6.061352e-02 
6.062119e-02 
6.063237e-02 
6.064687e-02 
6.066433e-02 
6.068418e-02 
6.070571e-02 
6.072803e-02 
6.075021e-02 
6.077133e-02 
6.079061e-02 
6.080743e-02 
6.082145e-02 
6.083253e-02 
6.084073e-02 
6.084632e-02 
6.084968e-02 
6.085128e-02 
6.085158e-02 
6.085105e-02 
6.085007e-02 
6.084888e-02 
6.084765e-02 
6.084640e-02 
6.084508e-02 
6.084361e-02 
6.084186e-02 
6.083972e-02 
6.083709e-02 
6.083392e-02 
6.083018e-02 
6.082589e-02 
6.082111e-02 
6.081594e-02 
6.081052e-02 
6.080505e-02 
6.079974e-02 
6.079479e-02 
6.079034e-02 
6.078651e-02 
6.078330e-02 
6.078065e-02 
6.077842e-02 
6.077638e-02 
6.077425e-02 
6.077168e-02 
6.076834e-02 
6.076391e-02 
6.075815e-02 
6.075091e-02 
6.074219e-02 
6.073210e-02 
6.072087e-02 
6.070879e-02 
6.069621e-02 
6.068350e-02 
6.067102e-02 
6.065910e-02 
6.064801e-02 
6.063793e-02 
6.062900e-02 
6.062128e-02 
6.061478e-02 
6.060948e-02 
6.060531e-02 
6.060218e-02 
6.059995e-02 
6.059844e-02 
6.059750e-02 
6.059698e-02 
6.059676e-02 
6.059679e-02 
6.059707e-02 
6.059760e-02 
6.059844e-02 
6.059959e-02 
6.060109e-02 
6.060298e-02 
6.060535e-02 
6.060829e-02 
6.061195e-02 
6.061646e-02 
6.062195e-02 
6.062847e-02 
6.063600e-02 
6.064447e-02 
6.065376e-02 
6.066374e-02 
6.067435e-02 
6.068560e-02 
6.069757e-02 
6.071035e-02 
6.072404e-02 
6.073869e-02 
6.075421e-02 
6.077045e-02 
6.078714e-02 
6.080396e-02 
6.082056e-02 
6.083657e-02 
6.085166e-02 
6.086548e-02 
6.087775e-02 
6.088817e-02 
6.089651e-02 
6.090261e-02 
6.090638e-02 
6.090785e-02 
6.090717e-02 
6.090464e-02 
6.090069e-02 
6.089585e-02 
6.089074e-02 
6.088598e-02 
6.088210e-02 
6.087952e-02 
6.087846e-02 
6.087897e-02 
6.088094e-02 
6.088411e-02 
6.088812e-02 
6.089261e-02 
6.089722e-02 
6.090164e-02 
6.090564e-02 
6.090902e-02 
6.091164e-02 
6.091338e-02 
6.091422e-02 
6.091414e-02 
6.091319e-02 
6.091144e-02 
6.090900e-02 
6.090599e-02 
6.090259e-02 
6.089901e-02 
6.089551e-02 
6.089239e-02 
6.088990e-02 
6.088824e-02 
6.088752e-02 
6.088776e-02 
6.088887e-02 
6.089073e-02 
6.089312e-02 
6.089580e-02 
6.089850e-02 
6.090097e-02 
6.090298e-02 
6.090435e-02 
6.090496e-02 
6.090473e-02 
6.090360e-02 
6.090153e-02 
6.089847e-02 
6.089435e-02 
6.088911e-02 
6.088269e-02 
6.087502e-02 
6.086608e-02 
6.085587e-02 
6.084441e-02 
6.083178e-02 
6.081805e-02 
6.080333e-02 
6.078773e-02 
6.077134e-02 
6.075426e-02 
6.073666e-02 
6.071876e-02 
6.070087e-02 
6.068338e-02 
6.066674e-02 
6.065141e-02 
6.063785e-02 
6.062646e-02 
6.061762e-02 
6.061166e-02 
6.058922e-02 
6.058947e-02 
6.059304e-02 
6.060025e-02 
6.061141e-02 
6.062670e-02 
6.064611e-02 
6.066935e-02 
6.069571e-02 
6.072410e-02 
6.075313e-02 
6.078131e-02 
6.080729e-02 
6.083002e-02 
6.084888e-02 
6.086367e-02 
6.087457e-02 
6.088202e-02 
6.088666e-02 
6.088921e-02 
6.089036e-02 
6.089079e-02 
6.089102e-02 
6.089142e-02 
6.089219e-02 
6.089327e-02 
6.089449e-02 
6.089558e-02 
6.089628e-02 
6.089638e-02 
6.089577e-02 
6.089447e-02 
6.089253e-02 
6.089001e-02 
6.088695e-02 
6.088335e-02 
6.087922e-02 
6.087467e-02 
6.086990e-02 
6.086521e-02 
6.086087e-02 
6.085710e-02 
6.085402e-02 
6.085163e-02 
6.084988e-02 
6.084861e-02 
6.084763e-02 
6.084670e-02 
6.084551e-02 
6.084371e-02 
6.084090e-02 
6.083665e-02 
6.083060e-02 
6.082254e-02 
6.081236e-02 
6.080013e-02 
6.078604e-02 
6.077038e-02 
6.075359e-02 
6.073619e-02 
6.071872e-02 
6.070171e-02 
6.068559e-02 
6.067075e-02 
6.065746e-02 
6.064594e-02 
6.063630e-02 
6.062857e-02 
6.062264e-02 
6.061825e-02 
6.061505e-02 
6.061264e-02 
6.061062e-02 
6.060873e-02 
6.060682e-02 
6.060489e-02 
6.060302e-02 
6.060127e-02 
6.059970e-02 
6.059834e-02 
6.059723e-02 
6.059641e-02 
6.059602e-02 
6.059622e-02 
6.059722e-02 
6.059921e-02 
6.060235e-02 
6.060672e-02 
6.061232e-02 
6.061915e-02 
6.062717e-02 
6.063638e-02 
6.064682e-02 
6.065858e-02 
6.067176e-02 
6.068641e-02 
6.070249e-02 
6.071988e-02 
6.073829e-02 
6.075735e-02 
6.077659e-02 
6.079547e-02 
6.081344e-02 
6.082997e-02 
6.084456e-02 
6.085678e-02 
6.086634e-02 
6.087309e-02 
6.087703e-02 
6.087836e-02 
6.087744e-02 
6.087481e-02 
6.087111e-02 
6.086709e-02 
6.086349e-02 
6.086099e-02 
6.086013e-02 
6.086125e-02 
6.086450e-02 
6.086983e-02 
6.087703e-02 
6.088570e-02 
6.089529e-02 
6.090523e-02 
6.091499e-02 
6.092414e-02 
6.093237e-02 
6.093945e-02 
6.094519e-02 
6.094943e-02 
6.095208e-02 
6.095309e-02 
6.095246e-02 
6.095018e-02 
6.094621e-02 
6.094051e-02 
6.093302e-02 
6.092384e-02 
6.091327e-02 
6.090188e-02 
6.089043e-02 
6.087979e-02 
6.087076e-02 
6.086396e-02 
6.085980e-02 
6.085841e-02 
6.085973e-02 
6.086342e-02 
6.086894e-02 
6.087554e-02 
6.088239e-02 
6.088873e-02 
6.089398e-02 
6.089781e-02 
6.090008e-02 