<VTKFile type='UnstructuredGrid' version='0.1' byte_order='BigEndian'> 
<UnstructuredGrid> 
<Piece NumberOfPoints='  1701 ' NumberOfCells='   400 '> 
<Points> 
<DataArray type='Float32' NumberOfComponents='3' Format='ascii'> 
0.000000e+00 0.000000e+00 0.000000e+00 
1.600000e+03 0.000000e+00 0.000000e+00 
3.200000e+03 0.000000e+00 0.000000e+00 
4.800000e+03 0.000000e+00 0.000000e+00 
6.400000e+03 0.000000e+00 0.000000e+00 
8.000000e+03 0.000000e+00 0.000000e+00 
9.600000e+03 0.000000e+00 0.000000e+00 
1.120000e+04 0.000000e+00 0.000000e+00 
1.280000e+04 0.000000e+00 0.000000e+00 
1.440000e+04 0.000000e+00 0.000000e+00 
1.600000e+04 0.000000e+00 0.000000e+00 
1.760000e+04 0.000000e+00 0.000000e+00 
1.920000e+04 0.000000e+00 0.000000e+00 
2.080000e+04 0.000000e+00 0.000000e+00 
2.240000e+04 0.000000e+00 0.000000e+00 
2.400000e+04 0.000000e+00 0.000000e+00 
2.560000e+04 0.000000e+00 0.000000e+00 
2.720000e+04 0.000000e+00 0.000000e+00 
2.880000e+04 0.000000e+00 0.000000e+00 
3.040000e+04 0.000000e+00 0.000000e+00 
3.200000e+04 0.000000e+00 0.000000e+00 
3.360000e+04 0.000000e+00 0.000000e+00 
3.520000e+04 0.000000e+00 0.000000e+00 
3.680000e+04 0.000000e+00 0.000000e+00 
3.840000e+04 0.000000e+00 0.000000e+00 
4.000000e+04 0.000000e+00 0.000000e+00 
4.160000e+04 0.000000e+00 0.000000e+00 
4.320000e+04 0.000000e+00 0.000000e+00 
4.480000e+04 0.000000e+00 0.000000e+00 
4.640000e+04 0.000000e+00 0.000000e+00 
4.800000e+04 0.000000e+00 0.000000e+00 
4.960000e+04 0.000000e+00 0.000000e+00 
5.120000e+04 0.000000e+00 0.000000e+00 
5.280000e+04 0.000000e+00 0.000000e+00 
5.440000e+04 0.000000e+00 0.000000e+00 
5.600000e+04 0.000000e+00 0.000000e+00 
5.760000e+04 0.000000e+00 0.000000e+00 
5.920000e+04 0.000000e+00 0.000000e+00 
6.080000e+04 0.000000e+00 0.000000e+00 
6.240000e+04 0.000000e+00 0.000000e+00 
6.400000e+04 0.000000e+00 0.000000e+00 
6.560000e+04 0.000000e+00 0.000000e+00 
6.720000e+04 0.000000e+00 0.000000e+00 
6.880000e+04 0.000000e+00 0.000000e+00 
7.040000e+04 0.000000e+00 0.000000e+00 
7.200000e+04 0.000000e+00 0.000000e+00 
7.360000e+04 0.000000e+00 0.000000e+00 
7.520000e+04 0.000000e+00 0.000000e+00 
7.680000e+04 0.000000e+00 0.000000e+00 
7.840000e+04 0.000000e+00 0.000000e+00 
8.000000e+04 0.000000e+00 0.000000e+00 
8.160000e+04 0.000000e+00 0.000000e+00 
8.320000e+04 0.000000e+00 0.000000e+00 
8.480000e+04 0.000000e+00 0.000000e+00 
8.640000e+04 0.000000e+00 0.000000e+00 
8.800000e+04 0.000000e+00 0.000000e+00 
8.960000e+04 0.000000e+00 0.000000e+00 
9.120000e+04 0.000000e+00 0.000000e+00 
9.280000e+04 0.000000e+00 0.000000e+00 
9.440000e+04 0.000000e+00 0.000000e+00 
9.600000e+04 0.000000e+00 0.000000e+00 
9.760000e+04 0.000000e+00 0.000000e+00 
9.920000e+04 0.000000e+00 0.000000e+00 
1.008000e+05 0.000000e+00 0.000000e+00 
1.024000e+05 0.000000e+00 0.000000e+00 
1.040000e+05 0.000000e+00 0.000000e+00 
1.056000e+05 0.000000e+00 0.000000e+00 
1.072000e+05 0.000000e+00 0.000000e+00 
1.088000e+05 0.000000e+00 0.000000e+00 
1.104000e+05 0.000000e+00 0.000000e+00 
1.120000e+05 0.000000e+00 0.000000e+00 
1.136000e+05 0.000000e+00 0.000000e+00 
1.152000e+05 0.000000e+00 0.000000e+00 
1.168000e+05 0.000000e+00 0.000000e+00 
1.184000e+05 0.000000e+00 0.000000e+00 
1.200000e+05 0.000000e+00 0.000000e+00 
1.216000e+05 0.000000e+00 0.000000e+00 
1.232000e+05 0.000000e+00 0.000000e+00 
1.248000e+05 0.000000e+00 0.000000e+00 
1.264000e+05 0.000000e+00 0.000000e+00 
1.280000e+05 0.000000e+00 0.000000e+00 
0.000000e+00 1.600000e+03 0.000000e+00 
1.600000e+03 1.600000e+03 0.000000e+00 
3.200000e+03 1.600000e+03 0.000000e+00 
4.800000e+03 1.600000e+03 0.000000e+00 
6.400000e+03 1.600000e+03 0.000000e+00 
8.000000e+03 1.600000e+03 0.000000e+00 
9.600000e+03 1.600000e+03 0.000000e+00 
1.120000e+04 1.600000e+03 0.000000e+00 
1.280000e+04 1.600000e+03 0.000000e+00 
1.440000e+04 1.600000e+03 0.000000e+00 
1.600000e+04 1.600000e+03 0.000000e+00 
1.760000e+04 1.600000e+03 0.000000e+00 
1.920000e+04 1.600000e+03 0.000000e+00 
2.080000e+04 1.600000e+03 0.000000e+00 
2.240000e+04 1.600000e+03 0.000000e+00 
2.400000e+04 1.600000e+03 0.000000e+00 
2.560000e+04 1.600000e+03 0.000000e+00 
2.720000e+04 1.600000e+03 0.000000e+00 
2.880000e+04 1.600000e+03 0.000000e+00 
3.040000e+04 1.600000e+03 0.000000e+00 
3.200000e+04 1.600000e+03 0.000000e+00 
3.360000e+04 1.600000e+03 0.000000e+00 
3.520000e+04 1.600000e+03 0.000000e+00 
3.680000e+04 1.600000e+03 0.000000e+00 
3.840000e+04 1.600000e+03 0.000000e+00 
4.000000e+04 1.600000e+03 0.000000e+00 
4.160000e+04 1.600000e+03 0.000000e+00 
4.320000e+04 1.600000e+03 0.000000e+00 
4.480000e+04 1.600000e+03 0.000000e+00 
4.640000e+04 1.600000e+03 0.000000e+00 
4.800000e+04 1.600000e+03 0.000000e+00 
4.960000e+04 1.600000e+03 0.000000e+00 
5.120000e+04 1.600000e+03 0.000000e+00 
5.280000e+04 1.600000e+03 0.000000e+00 
5.440000e+04 1.600000e+03 0.000000e+00 
5.600000e+04 1.600000e+03 0.000000e+00 
5.760000e+04 1.600000e+03 0.000000e+00 
5.920000e+04 1.600000e+03 0.000000e+00 
6.080000e+04 1.600000e+03 0.000000e+00 
6.240000e+04 1.600000e+03 0.000000e+00 
6.400000e+04 1.600000e+03 0.000000e+00 
6.560000e+04 1.600000e+03 0.000000e+00 
6.720000e+04 1.600000e+03 0.000000e+00 
6.880000e+04 1.600000e+03 0.000000e+00 
7.040000e+04 1.600000e+03 0.000000e+00 
7.200000e+04 1.600000e+03 0.000000e+00 
7.360000e+04 1.600000e+03 0.000000e+00 
7.520000e+04 1.600000e+03 0.000000e+00 
7.680000e+04 1.600000e+03 0.000000e+00 
7.840000e+04 1.600000e+03 0.000000e+00 
8.000000e+04 1.600000e+03 0.000000e+00 
8.160000e+04 1.600000e+03 0.000000e+00 
8.320000e+04 1.600000e+03 0.000000e+00 
8.480000e+04 1.600000e+03 0.000000e+00 
8.640000e+04 1.600000e+03 0.000000e+00 
8.800000e+04 1.600000e+03 0.000000e+00 
8.960000e+04 1.600000e+03 0.000000e+00 
9.120000e+04 1.600000e+03 0.000000e+00 
9.280000e+04 1.600000e+03 0.000000e+00 
9.440000e+04 1.600000e+03 0.000000e+00 
9.600000e+04 1.600000e+03 0.000000e+00 
9.760000e+04 1.600000e+03 0.000000e+00 
9.920000e+04 1.600000e+03 0.000000e+00 
1.008000e+05 1.600000e+03 0.000000e+00 
1.024000e+05 1.600000e+03 0.000000e+00 
1.040000e+05 1.600000e+03 0.000000e+00 
1.056000e+05 1.600000e+03 0.000000e+00 
1.072000e+05 1.600000e+03 0.000000e+00 
1.088000e+05 1.600000e+03 0.000000e+00 
1.104000e+05 1.600000e+03 0.000000e+00 
1.120000e+05 1.600000e+03 0.000000e+00 
1.136000e+05 1.600000e+03 0.000000e+00 
1.152000e+05 1.600000e+03 0.000000e+00 
1.168000e+05 1.600000e+03 0.000000e+00 
1.184000e+05 1.600000e+03 0.000000e+00 
1.200000e+05 1.600000e+03 0.000000e+00 
1.216000e+05 1.600000e+03 0.000000e+00 
1.232000e+05 1.600000e+03 0.000000e+00 
1.248000e+05 1.600000e+03 0.000000e+00 
1.264000e+05 1.600000e+03 0.000000e+00 
1.280000e+05 1.600000e+03 0.000000e+00 
0.000000e+00 3.200000e+03 0.000000e+00 
1.600000e+03 3.200000e+03 0.000000e+00 
3.200000e+03 3.200000e+03 0.000000e+00 
4.800000e+03 3.200000e+03 0.000000e+00 
6.400000e+03 3.200000e+03 0.000000e+00 
8.000000e+03 3.200000e+03 0.000000e+00 
9.600000e+03 3.200000e+03 0.000000e+00 
1.120000e+04 3.200000e+03 0.000000e+00 
1.280000e+04 3.200000e+03 0.000000e+00 
1.440000e+04 3.200000e+03 0.000000e+00 
1.600000e+04 3.200000e+03 0.000000e+00 
1.760000e+04 3.200000e+03 0.000000e+00 
1.920000e+04 3.200000e+03 0.000000e+00 
2.080000e+04 3.200000e+03 0.000000e+00 
2.240000e+04 3.200000e+03 0.000000e+00 
2.400000e+04 3.200000e+03 0.000000e+00 
2.560000e+04 3.200000e+03 0.000000e+00 
2.720000e+04 3.200000e+03 0.000000e+00 
2.880000e+04 3.200000e+03 0.000000e+00 
3.040000e+04 3.200000e+03 0.000000e+00 
3.200000e+04 3.200000e+03 0.000000e+00 
3.360000e+04 3.200000e+03 0.000000e+00 
3.520000e+04 3.200000e+03 0.000000e+00 
3.680000e+04 3.200000e+03 0.000000e+00 
3.840000e+04 3.200000e+03 0.000000e+00 
4.000000e+04 3.200000e+03 0.000000e+00 
4.160000e+04 3.200000e+03 0.000000e+00 
4.320000e+04 3.200000e+03 0.000000e+00 
4.480000e+04 3.200000e+03 0.000000e+00 
4.640000e+04 3.200000e+03 0.000000e+00 
4.800000e+04 3.200000e+03 0.000000e+00 
4.960000e+04 3.200000e+03 0.000000e+00 
5.120000e+04 3.200000e+03 0.000000e+00 
5.280000e+04 3.200000e+03 0.000000e+00 
5.440000e+04 3.200000e+03 0.000000e+00 
5.600000e+04 3.200000e+03 0.000000e+00 
5.760000e+04 3.200000e+03 0.000000e+00 
5.920000e+04 3.200000e+03 0.000000e+00 
6.080000e+04 3.200000e+03 0.000000e+00 
6.240000e+04 3.200000e+03 0.000000e+00 
6.400000e+04 3.200000e+03 0.000000e+00 
6.560000e+04 3.200000e+03 0.000000e+00 
6.720000e+04 3.200000e+03 0.000000e+00 
6.880000e+04 3.200000e+03 0.000000e+00 
7.040000e+04 3.200000e+03 0.000000e+00 
7.200000e+04 3.200000e+03 0.000000e+00 
7.360000e+04 3.200000e+03 0.000000e+00 
7.520000e+04 3.200000e+03 0.000000e+00 
7.680000e+04 3.200000e+03 0.000000e+00 
7.840000e+04 3.200000e+03 0.000000e+00 
8.000000e+04 3.200000e+03 0.000000e+00 
8.160000e+04 3.200000e+03 0.000000e+00 
8.320000e+04 3.200000e+03 0.000000e+00 
8.480000e+04 3.200000e+03 0.000000e+00 
8.640000e+04 3.200000e+03 0.000000e+00 
8.800000e+04 3.200000e+03 0.000000e+00 
8.960000e+04 3.200000e+03 0.000000e+00 
9.120000e+04 3.200000e+03 0.000000e+00 
9.280000e+04 3.200000e+03 0.000000e+00 
9.440000e+04 3.200000e+03 0.000000e+00 
9.600000e+04 3.200000e+03 0.000000e+00 
9.760000e+04 3.200000e+03 0.000000e+00 
9.920000e+04 3.200000e+03 0.000000e+00 
1.008000e+05 3.200000e+03 0.000000e+00 
1.024000e+05 3.200000e+03 0.000000e+00 
1.040000e+05 3.200000e+03 0.000000e+00 
1.056000e+05 3.200000e+03 0.000000e+00 
1.072000e+05 3.200000e+03 0.000000e+00 
1.088000e+05 3.200000e+03 0.000000e+00 
1.104000e+05 3.200000e+03 0.000000e+00 
1.120000e+05 3.200000e+03 0.000000e+00 
1.136000e+05 3.200000e+03 0.000000e+00 
1.152000e+05 3.200000e+03 0.000000e+00 
1.168000e+05 3.200000e+03 0.000000e+00 
1.184000e+05 3.200000e+03 0.000000e+00 
1.200000e+05 3.200000e+03 0.000000e+00 
1.216000e+05 3.200000e+03 0.000000e+00 
1.232000e+05 3.200000e+03 0.000000e+00 
1.248000e+05 3.200000e+03 0.000000e+00 
1.264000e+05 3.200000e+03 0.000000e+00 
1.280000e+05 3.200000e+03 0.000000e+00 
0.000000e+00 4.800000e+03 0.000000e+00 
[...]
<CellData Scalars='scalars'>
<DataArray type='Float32' Name='volume' Format='ascii'> 
1.024000e+07 
1.024000e+07 
1.024000e+07 
1.024000e+07 
1.024000e+07 
1.024000e+07 
1.024000e+07 
1.024000e+07 
1.024000e+07 
1.024000e+07 
1.024000e+07 
1.024000e+07 
1.024000e+07 
1.024000e+07 
1.024000e+07 
1.024000e+07 
1.024000e+07 
1.024000e+07 
1.024000e+07 
1.024000e+07 
1.024000e+07 
1.024000e+07 
1.024000e+07 
1.024000e+07 
1.024000e+07 
1.024000e+07 
1.024000e+07 
1.024000e+07 
1.024000e+07 
1.024000e+07 
1.024000e+07 
1.024000e+07 
1.024000e+07 
1.024000e+07 
1.024000e+07 
1.024000e+07 
1.024000e+07 
1.024000e+07 
1.024000e+07 
1.024000e+07 
1.024000e+07 
1.024000e+07 
1.024000e+07 
1.024000e+07 
1.024000e+07 
1.024000e+07 
1.024000e+07 
1.024000e+07 
1.024000e+07 
1.024000e+07 
1.024000e+07 
1.024000e+07 
1.024000e+07 
1.024000e+07 
1.024000e+07 
1.024000e+07 
1.024000e+07 
1.024000e+07 
1.024000e+07 
1.024000e+07 
1.024000e+07 
1.024000e+07 
1.024000e+07 
1.024000e+07 
1.024000e+07 
1.024000e+07 
1.024000e+07 
1.024000e+07 
1.024000e+07 
1.024000e+07 
1.024000e+07 
1.024000e+07 
1.024000e+07 
1.024000e+07 
1.024000e+07 
1.024000e+07 
1.024000e+07 
1.024000e+07 
1.024000e+07 
1.024000e+07 
1.024000e+07 
1.024000e+07 
1.024000e+07 
1.024000e+07 
1.024000e+07 
1.024000e+07 
1.024000e+07 
1.024000e+07 
1.024000e+07 
1.024000e+07 
1.024000e+07 
1.024000e+07 
1.024000e+07 
1.024000e+07 
1.024000e+07 
1.024000e+07 
1.024000e+07 
1.024000e+07 
1.024000e+07 
1.024000e+07 
1.024000e+07 
1.024000e+07 
1.024000e+07 
1.024000e+07 
1.024000e+07 
1.024000e+07 
1.024000e+07 
1.024000e+07 
1.024000e+07 
1.024000e+07 
1.024000e+07 
1.024000e+07 
1.024000e+07 
1.024000e+07 
1.024000e+07 
1.024000e+07 
1.024000e+07 
1.024000e+07 
1.024000e+07 
1.024000e+07 
1.024000e+07 
1.024000e+07 
1.024000e+07 
1.024000e+07 
1.024000e+07 
1.024000e+07 
1.024000e+07 
1.024000e+07 
1.024000e+07 
1.024000e+07 
1.024000e+07 
1.024000e+07 
1.024000e+07 
1.024000e+07 
1.024000e+07 
1.024000e+07 
1.024000e+07 
1.024000e+07 
1.024000e+07 
1.024000e+07 
1.024000e+07 
1.024000e+07 
1.024000e+07 
1.024000e+07 
1.024000e+07 
1.024000e+07 
1.024000e+07 
1.024000e+07 
1.024000e+07 
1.024000e+07 
1.024000e+07 
1.024000e+07 
1.024000e+07 
1.024000e+07 
1.024000e+07 
1.024000e+07 
1.024000e+07 
1.024000e+07 
1.024000e+07 
1.024000e+07 
1.024000e+07 
1.024000e+07 
1.024000e+07 
1.024000e+07 
1.024000e+07 
1.024000e+07 
1.024000e+07 
1.024000e+07 
1.024000e+07 
1.024000e+07 
1.024000e+07 
1.024000e+07 
1.024000e+07 
1.024000e+07 
1.024000e+07 
1.024000e+07 
1.024000e+07 
1.024000e+07 
1.024000e+07 
1.024000e+07 
1.024000e+07 
1.024000e+07 
1.024000e+07 
1.024000e+07 
1.024000e+07 
1.024000e+07 
1.024000e+07 
1.024000e+07 
1.024000e+07 
1.024000e+07 
1.024000e+07 
1.024000e+07 
1.024000e+07 
1.024000e+07 
1.024000e+07 
1.024000e+07 
1.024000e+07 
1.024000e+07 
1.024000e+07 
1.024000e+07 
1.024000e+07 
1.024000e+07 
1.024000e+07 
1.024000e+07 
1.024000e+07 
1.024000e+07 
1.024000e+07 
1.024000e+07 
1.024000e+07 
1.024000e+07 
1.024000e+07 
1.024000e+07 
1.024000e+07 
1.024000e+07 
1.024000e+07 
1.024000e+07 
1.024000e+07 
1.024000e+07 
1.024000e+07 
1.024000e+07 
1.024000e+07 
1.024000e+07 
1.024000e+07 
1.024000e+07 
1.024000e+07 
1.024000e+07 
1.024000e+07 
1.024000e+07 
1.024000e+07 
1.024000e+07 
1.024000e+07 
1.024000e+07 
1.024000e+07 
1.024000e+07 
1.024000e+07 
1.024000e+07 
1.024000e+07 
1.024000e+07 
1.024000e+07 
1.024000e+07 
1.024000e+07 
1.024000e+07 
1.024000e+07 
1.024000e+07 
1.024000e+07 
1.024000e+07 
1.024000e+07 
1.024000e+07 
1.024000e+07 
1.024000e+07 
1.024000e+07 
1.024000e+07 
1.024000e+07 
1.024000e+07 
1.024000e+07 
1.024000e+07 
1.024000e+07 
1.024000e+07 
1.024000e+07 
1.024000e+07 
1.024000e+07 
1.024000e+07 
1.024000e+07 
1.024000e+07 
1.024000e+07 
1.024000e+07 
1.024000e+07 
1.024000e+07 
1.024000e+07 
1.024000e+07 
1.024000e+07 
1.024000e+07 
1.024000e+07 
1.024000e+07 
1.024000e+07 
1.024000e+07 
1.024000e+07 
1.024000e+07 
1.024000e+07 
1.024000e+07 
1.024000e+07 
1.024000e+07 
1.024000e+07 
1.024000e+07 
1.024000e+07 
1.024000e+07 
1.024000e+07 
1.024000e+07 
1.024000e+07 
1.024000e+07 
1.024000e+07 
1.024000e+07 
1.024000e+07 
1.024000e+07 
1.024000e+07 
1.024000e+07 
1.024000e+07 
1.024000e+07 
1.024000e+07 
1.024000e+07 
1.024000e+07 
1.024000e+07 
1.024000e+07 
1.024000e+07 
1.024000e+07 
1.024000e+07 
1.024000e+07 
1.024000e+07 
1.024000e+07 
1.024000e+07 
1.024000e+07 
1.024000e+07 
1.024000e+07 
1.024000e+07 
1.024000e+07 
1.024000e+07 
1.024000e+07 
1.024000e+07 
1.024000e+07 
1.024000e+07 
1.024000e+07 
1.024000e+07 
1.024000e+07 
1.024000e+07 
1.024000e+07 
1.024000e+07 
1.024000e+07 
1.024000e+07 
1.024000e+07 
1.024000e+07 
1.024000e+07 
1.024000e+07 
1.024000e+07 
1.024000e+07 
1.024000e+07 
1.024000e+07 
1.024000e+07 
1.024000e+07 
1.024000e+07 
1.024000e+07 
1.024000e+07 
1.024000e+07 
1.024000e+07 
1.024000e+07 
1.024000e+07 
1.024000e+07 
1.024000e+07 
1.024000e+07 
1.024000e+07 
1.024000e+07 
1.024000e+07 
1.024000e+07 
1.024000e+07 
1.024000e+07 
1.024000e+07 
1.024000e+07 
1.024000e+07 
1.024000e+07 
1.024000e+07 
1.024000e+07 
1.024000e+07 
1.024000e+07 
1.024000e+07 
1.024000e+07 
1.024000e+07 
1.024000e+07 
1.024000e+07 
1.024000e+07 
1.024000e+07 
1.024000e+07 
1.024000e+07 
1.024000e+07 
1.024000e+07 
1.024000e+07 
1.024000e+07 
1.024000e+07 
1.024000e+07 
1.024000e+07 
1.024000e+07 
1.024000e+07 
1.024000e+07 
1.024000e+07 
1.024000e+07 
1.024000e+07 
1.024000e+07 
1.024000e+07 
1.024000e+07 
1.024000e+07 
1.024000e+07 
1.024000e+07 
1.024000e+07 
1.024000e+07 
1.024000e+07 
1.024000e+07 
1.024000e+07 
1.024000e+07 
1.024000e+07 
1.024000e+07 
1.024000e+07 
1.024000e+07 
</DataArray>
</CellData>
<PointData Scalars='scalars'>
<DataArray type='Float32' NumberOfComponents='3' Name='velocity (cm/year)' Format='ascii'> 
0.000000e+00 0.000000e+00 0.000000e+00 
2.500000e-02 0.000000e+00 0.000000e+00 
5.000000e-02 0.000000e+00 0.000000e+00 
7.500000e-02 0.000000e+00 0.000000e+00 
1.000000e-01 0.000000e+00 0.000000e+00 
1.250000e-01 0.000000e+00 0.000000e+00 
1.500000e-01 0.000000e+00 0.000000e+00 
1.750000e-01 0.000000e+00 0.000000e+00 
2.000000e-01 0.000000e+00 0.000000e+00 
2.250000e-01 0.000000e+00 0.000000e+00 
2.500000e-01 0.000000e+00 0.000000e+00 
2.750000e-01 0.000000e+00 0.000000e+00 
3.000000e-01 0.000000e+00 0.000000e+00 
3.250000e-01 0.000000e+00 0.000000e+00 
3.500000e-01 0.000000e+00 0.000000e+00 
3.750000e-01 0.000000e+00 0.000000e+00 
4.000000e-01 0.000000e+00 0.000000e+00 
4.250000e-01 0.000000e+00 0.000000e+00 
4.500000e-01 0.000000e+00 0.000000e+00 
4.750000e-01 0.000000e+00 0.000000e+00 
5.000000e-01 0.000000e+00 0.000000e+00 
5.250000e-01 0.000000e+00 0.000000e+00 
5.500000e-01 0.000000e+00 0.000000e+00 
5.750000e-01 0.000000e+00 0.000000e+00 
6.000000e-01 0.000000e+00 0.000000e+00 
6.250000e-01 0.000000e+00 0.000000e+00 
6.500000e-01 0.000000e+00 0.000000e+00 
6.750000e-01 0.000000e+00 0.000000e+00 
7.000000e-01 0.000000e+00 0.000000e+00 
7.250000e-01 0.000000e+00 0.000000e+00 
7.500000e-01 0.000000e+00 0.000000e+00 
7.750000e-01 0.000000e+00 0.000000e+00 
8.000000e-01 0.000000e+00 0.000000e+00 
8.250000e-01 0.000000e+00 0.000000e+00 
8.500000e-01 0.000000e+00 0.000000e+00 
8.750000e-01 0.000000e+00 0.000000e+00 
9.000000e-01 0.000000e+00 0.000000e+00 
9.250000e-01 0.000000e+00 0.000000e+00 
9.500000e-01 0.000000e+00 0.000000e+00 
9.750000e-01 0.000000e+00 0.000000e+00 
1.000000e+00 0.000000e+00 0.000000e+00 
1.025000e+00 0.000000e+00 0.000000e+00 
1.050000e+00 0.000000e+00 0.000000e+00 
1.075000e+00 0.000000e+00 0.000000e+00 
1.100000e+00 0.000000e+00 0.000000e+00 
1.125000e+00 0.000000e+00 0.000000e+00 
1.150000e+00 0.000000e+00 0.000000e+00 
1.175000e+00 0.000000e+00 0.000000e+00 
1.200000e+00 0.000000e+00 0.000000e+00 
1.225000e+00 0.000000e+00 0.000000e+00 
1.250000e+00 0.000000e+00 0.000000e+00 
1.275000e+00 0.000000e+00 0.000000e+00 
1.300000e+00 0.000000e+00 0.000000e+00 
1.325000e+00 0.000000e+00 0.000000e+00 
1.350000e+00 0.000000e+00 0.000000e+00 
1.375000e+00 0.000000e+00 0.000000e+00 
1.400000e+00 0.000000e+00 0.000000e+00 
1.425000e+00 0.000000e+00 0.000000e+00 
1.450000e+00 0.000000e+00 0.000000e+00 
1.475000e+00 0.000000e+00 0.000000e+00 
1.500000e+00 0.000000e+00 0.000000e+00 
1.525000e+00 0.000000e+00 0.000000e+00 
1.550000e+00 0.000000e+00 0.000000e+00 
1.575000e+00 0.000000e+00 0.000000e+00 
1.600000e+00 0.000000e+00 0.000000e+00 
1.625000e+00 0.000000e+00 0.000000e+00 
1.650000e+00 0.000000e+00 0.000000e+00 
1.675000e+00 0.000000e+00 0.000000e+00 
1.700000e+00 0.000000e+00 0.000000e+00 
1.725000e+00 0.000000e+00 0.000000e+00 
1.750000e+00 0.000000e+00 0.000000e+00 
1.775000e+00 0.000000e+00 0.000000e+00 
1.800000e+00 0.000000e+00 0.000000e+00 
1.825000e+00 0.000000e+00 0.000000e+00 
1.850000e+00 0.000000e+00 0.000000e+00 
1.875000e+00 0.000000e+00 0.000000e+00 
1.900000e+00 0.000000e+00 0.000000e+00 
1.925000e+00 0.000000e+00 0.000000e+00 
1.950000e+00 0.000000e+00 0.000000e+00 
1.975000e+00 0.000000e+00 0.000000e+00 
2.000000e+00 0.000000e+00 0.000000e+00 
0.000000e+00 -2.500000e-02 0.000000e+00 
2.500000e-02 -2.500000e-02 0.000000e+00 
5.000000e-02 -2.500000e-02 0.000000e+00 
7.500000e-02 -2.500000e-02 0.000000e+00 
1.000000e-01 -2.500000e-02 0.000000e+00 
1.250000e-01 -2.500000e-02 0.000000e+00 
1.500000e-01 -2.500000e-02 0.000000e+00 
1.750000e-01 -2.500000e-02 0.000000e+00 
2.000000e-01 -2.500000e-02 0.000000e+00 
2.250000e-01 -2.500000e-02 0.000000e+00 
2.500000e-01 -2.500000e-02 0.000000e+00 
2.750000e-01 -2.500000e-02 0.000000e+00 
3.000000e-01 -2.500000e-02 0.000000e+00 
3.250000e-01 -2.500000e-02 0.000000e+00 
3.500000e-01 -2.500000e-02 0.000000e+00 
3.750000e-01 -2.500000e-02 0.000000e+00 
4.000000e-01 -2.500000e-02 0.000000e+00 
4.250000e-01 -2.500000e-02 0.000000e+00 
4.500000e-01 -2.500000e-02 0.000000e+00 
4.750000e-01 -2.500000e-02 0.000000e+00 
5.000000e-01 -2.500000e-02 0.000000e+00 
5.250000e-01 -2.500000e-02 0.000000e+00 
5.500000e-01 -2.500000e-02 0.000000e+00 
5.750000e-01 -2.500000e-02 0.000000e+00 
6.000000e-01 -2.500000e-02 0.000000e+00 
6.250000e-01 -2.500000e-02 0.000000e+00 
6.500000e-01 -2.500000e-02 0.000000e+00 
6.750000e-01 -2.500000e-02 0.000000e+00 
7.000000e-01 -2.500000e-02 0.000000e+00 
7.250000e-01 -2.500000e-02 0.000000e+00 
7.500000e-01 -2.500000e-02 0.000000e+00 
7.750000e-01 -2.500000e-02 0.000000e+00 
8.000000e-01 -2.500000e-02 0.000000e+00 
8.250000e-01 -2.500000e-02 0.000000e+00 
8.500000e-01 -2.500000e-02 0.000000e+00 
8.750000e-01 -2.500000e-02 0.000000e+00 
9.000000e-01 -2.500000e-02 0.000000e+00 
9.250000e-01 -2.500000e-02 0.000000e+00 
9.500000e-01 -2.500000e-02 0.000000e+00 
9.750000e-01 -2.500000e-02 0.000000e+00 
1.000000e+00 -2.500000e-02 0.000000e+00 
1.025000e+00 -2.500000e-02 0.000000e+00 
1.050000e+00 -2.500000e-02 0.000000e+00 
1.075000e+00 -2.500000e-02 0.000000e+00 
1.100000e+00 -2.500000e-02 0.000000e+00 
1.125000e+00 -2.500000e-02 0.000000e+00 
1.150000e+00 -2.500000e-02 0.000000e+00 
1.175000e+00 -2.500000e-02 0.000000e+00 
1.200000e+00 -2.500000e-02 0.000000e+00 
1.225000e+00 -2.500000e-02 0.000000e+00 
1.250000e+00 -2.500000e-02 0.000000e+00 
1.275000e+00 -2.500000e-02 0.000000e+00 
1.300000e+00 -2.500000e-02 0.000000e+00 
1.325000e+00 -2.500000e-02 0.000000e+00 
1.350000e+00 -2.500000e-02 0.000000e+00 
1.375000e+00 -2.500000e-02 0.000000e+00 
1.400000e+00 -2.500000e-02 0.000000e+00 
1.425000e+00 -2.500000e-02 0.000000e+00 
1.450000e+00 -2.500000e-02 0.000000e+00 
1.475000e+00 -2.500000e-02 0.000000e+00 
1.500000e+00 -2.500000e-02 0.000000e+00 
1.525000e+00 -2.500000e-02 0.000000e+00 
1.550000e+00 -2.500000e-02 0.000000e+00 
1.575000e+00 -2.500000e-02 0.000000e+00 
1.600000e+00 -2.500000e-02 0.000000e+00 
1.625000e+00 -2.500000e-02 0.000000e+00 
1.650000e+00 -2.500000e-02 0.000000e+00 
1.675000e+00 -2.500000e-02 0.000000e+00 
1.700000e+00 -2.500000e-02 0.000000e+00 
1.725000e+00 -2.500000e-02 0.000000e+00 
1.750000e+00 -2.500000e-02 0.000000e+00 
1.775000e+00 -2.500000e-02 0.000000e+00 
1.800000e+00 -2.500000e-02 0.000000e+00 
1.825000e+00 -2.500000e-02 0.000000e+00 
1.850000e+00 -2.500000e-02 0.000000e+00 
1.875000e+00 -2.500000e-02 0.000000e+00 
1.900000e+00 -2.500000e-02 0.000000e+00 
1.925000e+00 -2.500000e-02 0.000000e+00 
1.950000e+00 -2.500000e-02 0.000000e+00 
1.975000e+00 -2.500000e-02 0.000000e+00 
2.000000e+00 -2.500000e-02 0.000000e+00 
0.000000e+00 -5.000000e-02 0.000000e+00 
2.500000e-02 -5.000000e-02 0.000000e+00 
5.000000e-02 -5.000000e-02 0.000000e+00 
7.500000e-02 -5.000000e-02 0.000000e+00 
1.000000e-01 -5.000000e-02 0.000000e+00 
1.250000e-01 -5.000000e-02 0.000000e+00 
1.500000e-01 -5.000000e-02 0.000000e+00 
1.750000e-01 -5.000000e-02 0.000000e+00 
2.000000e-01 -5.000000e-02 0.000000e+00 
2.250000e-01 -5.000000e-02 0.000000e+00 
2.500000e-01 -5.000000e-02 0.000000e+00 
2.750000e-01 -5.000000e-02 0.000000e+00 
3.000000e-01 -5.000000e-02 0.000000e+00 
3.250000e-01 -5.000000e-02 0.000000e+00 
3.500000e-01 -5.000000e-02 0.000000e+00 
3.750000e-01 -5.000000e-02 0.000000e+00 
4.000000e-01 -5.000000e-02 0.000000e+00 
4.250000e-01 -5.000000e-02 0.000000e+00 
4.500000e-01 -5.000000e-02 0.000000e+00 
4.750000e-01 -5.000000e-02 0.000000e+00 
5.000000e-01 -5.000000e-02 0.000000e+00 
5.250000e-01 -5.000000e-02 0.000000e+00 
5.500000e-01 -5.000000e-02 0.000000e+00 
5.750000e-01 -5.000000e-02 0.000000e+00 
6.000000e-01 -5.000000e-02 0.000000e+00 
6.250000e-01 -5.000000e-02 0.000000e+00 
6.500000e-01 -5.000000e-02 0.000000e+00 
6.750000e-01 -5.000000e-02 0.000000e+00 
7.000000e-01 -5.000000e-02 0.000000e+00 
7.250000e-01 -5.000000e-02 0.000000e+00 
7.500000e-01 -5.000000e-02 0.000000e+00 
7.750000e-01 -5.000000e-02 0.000000e+00 
8.000000e-01 -5.000000e-02 0.000000e+00 
8.250000e-01 -5.000000e-02 0.000000e+00 
8.500000e-01 -5.000000e-02 0.000000e+00 
8.750000e-01 -5.000000e-02 0.000000e+00 
9.000000e-01 -5.000000e-02 0.000000e+00 
9.250000e-01 -5.000000e-02 0.000000e+00 
9.500000e-01 -5.000000e-02 0.000000e+00 
9.750000e-01 -5.000000e-02 0.000000e+00 
1.000000e+00 -5.000000e-02 0.000000e+00 
1.025000e+00 -5.000000e-02 0.000000e+00 
1.050000e+00 -5.000000e-02 0.000000e+00 
1.075000e+00 -5.000000e-02 0.000000e+00 
1.100000e+00 -5.000000e-02 0.000000e+00 
1.125000e+00 -5.000000e-02 0.000000e+00 
1.150000e+00 -5.000000e-02 0.000000e+00 
1.175000e+00 -5.000000e-02 0.000000e+00 
1.200000e+00 -5.000000e-02 0.000000e+00 
1.225000e+00 -5.000000e-02 0.000000e+00 
1.250000e+00 -5.000000e-02 0.000000e+00 
1.275000e+00 -5.000000e-02 0.000000e+00 
1.300000e+00 -5.000000e-02 0.000000e+00 
1.325000e+00 -5.000000e-02 0.000000e+00 
1.350000e+00 -5.000000e-02 0.000000e+00 
1.375000e+00 -5.000000e-02 0.000000e+00 
1.400000e+00 -5.000000e-02 0.000000e+00 
1.425000e+00 -5.000000e-02 0.000000e+00 
1.450000e+00 -5.000000e-02 0.000000e+00 
1.475000e+00 -5.000000e-02 0.000000e+00 
1.500000e+00 -5.000000e-02 0.000000e+00 
1.525000e+00 -5.000000e-02 0.000000e+00 
1.550000e+00 -5.000000e-02 0.000000e+00 
1.575000e+00 -5.000000e-02 0.000000e+00 
1.600000e+00 -5.000000e-02 0.000000e+00 
1.625000e+00 -5.000000e-02 0.000000e+00 
1.650000e+00 -5.000000e-02 0.000000e+00 
1.675000e+00 -5.000000e-02 0.000000e+00 
1.700000e+00 -5.000000e-02 0.000000e+00 
1.725000e+00 -5.000000e-02 0.000000e+00 
1.750000e+00 -5.000000e-02 0.000000e+00 
1.775000e+00 -5.000000e-02 0.000000e+00 
1.800000e+00 -5.000000e-02 0.000000e+00 
1.825000e+00 -5.000000e-02 0.000000e+00 
1.850000e+00 -5.000000e-02 0.000000e+00 
1.875000e+00 -5.000000e-02 0.000000e+00 
1.900000e+00 -5.000000e-02 0.000000e+00 
1.925000e+00 -5.000000e-02 0.000000e+00 
1.950000e+00 -5.000000e-02 0.000000e+00 
1.975000e+00 -5.000000e-02 0.000000e+00 
2.000000e+00 -5.000000e-02 0.000000e+00 
0.000000e+00 -7.500000e-02 0.000000e+00 
2.500000e-02 -7.500000e-02 0.000000e+00 
5.000000e-02 -7.500000e-02 0.000000e+00 
7.500000e-02 -7.500000e-02 0.000000e+00 
1.000000e-01 -7.500000e-02 0.000000e+00 
1.250000e-01 -7.500000e-02 0.000000e+00 
1.500000e-01 -7.500000e-02 0.000000e+00 
1.750000e-01 -7.500000e-02 0.000000e+00 
2.000000e-01 -7.500000e-02 0.000000e+00 
2.250000e-01 -7.500000e-02 0.000000e+00 
2.500000e-01 -7.500000e-02 0.000000e+00 
2.750000e-01 -7.500000e-02 0.000000e+00 
3.000000e-01 -7.500000e-02 0.000000e+00 
3.250000e-01 -7.500000e-02 0.000000e+00 
3.500000e-01 -7.500000e-02 0.000000e+00 
3.750000e-01 -7.500000e-02 0.000000e+00 
4.000000e-01 -7.500000e-02 0.000000e+00 
4.250000e-01 -7.500000e-02 0.000000e+00 
4.500000e-01 -7.500000e-02 0.000000e+00 
4.750000e-01 -7.500000e-02 0.000000e+00 
5.000000e-01 -7.500000e-02 0.000000e+00 
5.250000e-01 -7.500000e-02 0.000000e+00 
5.500000e-01 -7.500000e-02 0.000000e+00 
5.750000e-01 -7.500000e-02 0.000000e+00 
6.000000e-01 -7.500000e-02 0.000000e+00 
6.250000e-01 -7.500000e-02 0.000000e+00 
6.500000e-01 -7.500000e-02 0.000000e+00 
6.750000e-01 -7.500000e-02 0.000000e+00 
7.000000e-01 -7.500000e-02 0.000000e+00 
7.250000e-01 -7.500000e-02 0.000000e+00 
7.500000e-01 -7.500000e-02 0.000000e+00 
7.750000e-01 -7.500000e-02 0.000000e+00 
8.000000e-01 -7.500000e-02 0.000000e+00 
8.250000e-01 -7.500000e-02 0.000000e+00 
8.500000e-01 -7.500000e-02 0.000000e+00 
8.750000e-01 -7.500000e-02 0.000000e+00 
9.000000e-01 -7.500000e-02 0.000000e+00 
9.250000e-01 -7.500000e-02 0.000000e+00 
9.500000e-01 -7.500000e-02 0.000000e+00 
9.750000e-01 -7.500000e-02 0.000000e+00 
1.000000e+00 -7.500000e-02 0.000000e+00 
1.025000e+00 -7.500000e-02 0.000000e+00 
1.050000e+00 -7.500000e-02 0.000000e+00 
1.075000e+00 -7.500000e-02 0.000000e+00 
1.100000e+00 -7.500000e-02 0.000000e+00 
1.125000e+00 -7.500000e-02 0.000000e+00 
1.150000e+00 -7.500000e-02 0.000000e+00 
1.175000e+00 -7.500000e-02 0.000000e+00 
1.200000e+00 -7.500000e-02 0.000000e+00 
1.225000e+00 -7.500000e-02 0.000000e+00 
1.250000e+00 -7.500000e-02 0.000000e+00 
1.275000e+00 -7.500000e-02 0.000000e+00 
1.300000e+00 -7.500000e-02 0.000000e+00 
1.325000e+00 -7.500000e-02 0.000000e+00 
1.350000e+00 -7.500000e-02 0.000000e+00 
1.375000e+00 -7.500000e-02 0.000000e+00 
1.400000e+00 -7.500000e-02 0.000000e+00 
1.425000e+00 -7.500000e-02 0.000000e+00 
1.450000e+00 -7.500000e-02 0.000000e+00 
1.475000e+00 -7.500000e-02 0.000000e+00 
1.500000e+00 -7.500000e-02 0.000000e+00 
1.525000e+00 -7.500000e-02 0.000000e+00 
1.550000e+00 -7.500000e-02 0.000000e+00 
1.575000e+00 -7.500000e-02 0.000000e+00 
1.600000e+00 -7.500000e-02 0.000000e+00 
1.625000e+00 -7.500000e-02 0.000000e+00 
1.650000e+00 -7.500000e-02 0.000000e+00 
1.675000e+00 -7.500000e-02 0.000000e+00 
1.700000e+00 -7.500000e-02 0.000000e+00 
1.725000e+00 -7.500000e-02 0.000000e+00 
1.750000e+00 -7.500000e-02 0.000000e+00 
1.775000e+00 -7.500000e-02 0.000000e+00 
1.800000e+00 -7.500000e-02 0.000000e+00 
1.825000e+00 -7.500000e-02 0.000000e+00 
1.850000e+00 -7.500000e-02 0.000000e+00 
1.875000e+00 -7.500000e-02 0.000000e+00 
1.900000e+00 -7.500000e-02 0.000000e+00 
1.925000e+00 -7.500000e-02 0.000000e+00 
1.950000e+00 -7.500000e-02 0.000000e+00 
1.975000e+00 -7.500000e-02 0.000000e+00 
2.000000e+00 -7.500000e-02 0.000000e+00 
0.000000e+00 -1.000000e-01 0.000000e+00 
2.500000e-02 -1.000000e-01 0.000000e+00 
5.000000e-02 -1.000000e-01 0.000000e+00 
7.500000e-02 -1.000000e-01 0.000000e+00 
1.000000e-01 -1.000000e-01 0.000000e+00 
1.250000e-01 -1.000000e-01 0.000000e+00 
1.500000e-01 -1.000000e-01 0.000000e+00 
1.750000e-01 -1.000000e-01 0.000000e+00 
2.000000e-01 -1.000000e-01 0.000000e+00 
2.250000e-01 -1.000000e-01 0.000000e+00 
2.500000e-01 -1.000000e-01 0.000000e+00 
2.750000e-01 -1.000000e-01 0.000000e+00 
3.000000e-01 -1.000000e-01 0.000000e+00 
3.250000e-01 -1.000000e-01 0.000000e+00 
3.500000e-01 -1.000000e-01 0.000000e+00 
3.750000e-01 -1.000000e-01 0.000000e+00 
4.000000e-01 -1.000000e-01 0.000000e+00 
4.250000e-01 -1.000000e-01 0.000000e+00 
4.500000e-01 -1.000000e-01 0.000000e+00 
4.750000e-01 -1.000000e-01 0.000000e+00 
5.000000e-01 -1.000000e-01 0.000000e+00 
5.250000e-01 -1.000000e-01 0.000000e+00 
5.500000e-01 -1.000000e-01 0.000000e+00 