<VTKFile type='UnstructuredGrid' version='0.1' byte_order='BigEndian'> 
<UnstructuredGrid> 
<Piece NumberOfPoints=' 11310 ' NumberOfCells=' 10920 '> 
<Points> 
<DataArray type='Float32' NumberOfComponents='3' Format='ascii'> 
  1.220000   0.000000   0.000000 
  1.219842   0.019654   0.000000 
  1.219367   0.039303   0.000000 
  1.218575   0.058942   0.000000 
  1.217468   0.078566   0.000000 
  1.216044   0.098169   0.000000 
  1.214305   0.117747   0.000000 
  1.212250   0.137294   0.000000 
  1.209881   0.156806   0.000000 
  1.207198   0.176277   0.000000 
  1.204201   0.195702   0.000000 
  1.200892   0.215076   0.000000 
  1.197272   0.234395   0.000000 
  1.193340   0.253652   0.000000 
  1.189099   0.272844   0.000000 
  1.184549   0.291965   0.000000 
  1.179692   0.311010   0.000000 
  1.174528   0.329975   0.000000 
  1.169060   0.348854   0.000000 
  1.163288   0.367642   0.000000 
  1.157214   0.386335   0.000000 
  1.150840   0.404928   0.000000 
  1.144168   0.423415   0.000000 
  1.137198   0.441793   0.000000 
  1.129933   0.460056   0.000000 
  1.122375   0.478199   0.000000 
  1.114525   0.496219   0.000000 
  1.106387   0.514109   0.000000 
  1.097961   0.531867   0.000000 
  1.089250   0.549486   0.000000 
  1.080256   0.566962   0.000000 
  1.070982   0.584292   0.000000 
  1.061430   0.601469   0.000000 
  1.051603   0.618491   0.000000 
  1.041503   0.635352   0.000000 
  1.031132   0.652048   0.000000 
  1.020494   0.668575   0.000000 
  1.009590   0.684929   0.000000 
  0.998425   0.701104   0.000000 
  0.987001   0.717098   0.000000 
  0.975320   0.732906   0.000000 
  0.963386   0.748523   0.000000 
  0.951203   0.763946   0.000000 
  0.938772   0.779171   0.000000 
  0.926098   0.794193   0.000000 
  0.913183   0.809010   0.000000 
  0.900031   0.823616   0.000000 
  0.886646   0.838009   0.000000 
  0.873031   0.852184   0.000000 
  0.859189   0.866138   0.000000 
  0.845124   0.879867   0.000000 
  0.830839   0.893368   0.000000 
  0.816339   0.906637   0.000000 
  0.801627   0.919670   0.000000 
  0.786707   0.932465   0.000000 
  0.771583   0.945018   0.000000 
  0.756259   0.957326   0.000000 
  0.740738   0.969385   0.000000 
  0.725025   0.981192   0.000000 
  0.709124   0.992745   0.000000 
  0.693039   1.004040   0.000000 
  0.676774   1.015075   0.000000 
  0.660333   1.025846   0.000000 
  0.643721   1.036351   0.000000 
  0.626942   1.046587   0.000000 
  0.610000   1.056551   0.000000 
  0.592900   1.066241   0.000000 
  0.575646   1.075654   0.000000 
  0.558242   1.084788   0.000000 
  0.540694   1.093641   0.000000 
  0.523005   1.102210   0.000000 
  0.505180   1.110492   0.000000 
  0.487225   1.118486   0.000000 
  0.469143   1.126191   0.000000 
  0.450939   1.133602   0.000000 
  0.432618   1.140720   0.000000 
  0.414185   1.147541   0.000000 
  0.395644   1.154065   0.000000 
  0.377001   1.160289   0.000000 
  0.358260   1.166212   0.000000 
  0.339425   1.171832   0.000000 
  0.320503   1.177148   0.000000 
  0.301498   1.182159   0.000000 
  0.282414   1.186862   0.000000 
  0.263257   1.191258   0.000000 
  0.244031   1.195345   0.000000 
  0.224743   1.199121   0.000000 
  0.205396   1.202586   0.000000 
  0.185995   1.205739   0.000000 
  0.166547   1.208579   0.000000 
  0.147055   1.211105   0.000000 
  0.127525   1.213317   0.000000 
  0.107962   1.215214   0.000000 
  0.088370   1.216795   0.000000 
  0.068756   1.218061   0.000000 
  0.049124   1.219011   0.000000 
  0.029480   1.219644   0.000000 
  0.009827   1.219960   0.000000 
 -0.009827   1.219960   0.000000 
 -0.029480   1.219644   0.000000 
 -0.049124   1.219011   0.000000 
 -0.068756   1.218061   0.000000 
 -0.088370   1.216795   0.000000 
 -0.107962   1.215214   0.000000 
 -0.127525   1.213317   0.000000 
 -0.147055   1.211105   0.000000 
 -0.166547   1.208579   0.000000 
 -0.185995   1.205739   0.000000 
 -0.205396   1.202586   0.000000 
 -0.224743   1.199121   0.000000 
 -0.244031   1.195345   0.000000 
 -0.263257   1.191258   0.000000 
 -0.282414   1.186862   0.000000 
 -0.301498   1.182159   0.000000 
 -0.320503   1.177148   0.000000 
 -0.339425   1.171832   0.000000 
 -0.358260   1.166212   0.000000 
 -0.377001   1.160289   0.000000 
 -0.395644   1.154065   0.000000 
 -0.414185   1.147541   0.000000 
 -0.432618   1.140720   0.000000 
 -0.450939   1.133602   0.000000 
 -0.469143   1.126191   0.000000 
 -0.487225   1.118486   0.000000 
 -0.505180   1.110492   0.000000 
 -0.523005   1.102210   0.000000 
 -0.540694   1.093641   0.000000 
 -0.558242   1.084788   0.000000 
 -0.575646   1.075654   0.000000 
 -0.592900   1.066241   0.000000 
 -0.610000   1.056551   0.000000 
 -0.626942   1.046587   0.000000 
 -0.643721   1.036351   0.000000 
 -0.660333   1.025846   0.000000 
 -0.676774   1.015075   0.000000 
 -0.693039   1.004040   0.000000 
 -0.709124   0.992745   0.000000 
 -0.725025   0.981192   0.000000 
 -0.740738   0.969385   0.000000 
 -0.756259   0.957326   0.000000 
 -0.771583   0.945018   0.000000 
 -0.786707   0.932465   0.000000 
 -0.801627   0.919670   0.000000 
 -0.816339   0.906637   0.000000 
 -0.830839   0.893368   0.000000 
 -0.845124   0.879867   0.000000 
 -0.859189   0.866138   0.000000 
 -0.873031   0.852184   0.000000 
 -0.886646   0.838009   0.000000 
 -0.900031   0.823616   0.000000 
 -0.913183   0.809010   0.000000 
 -0.926098   0.794193   0.000000 
 -0.938772   0.779171   0.000000 
 -0.951203   0.763946   0.000000 
 -0.963386   0.748523   0.000000 
 -0.975320   0.732906   0.000000 
 -0.987001   0.717098   0.000000 
 -0.998425   0.701104   0.000000 
 -1.009590   0.684929   0.000000 
 -1.020494   0.668575   0.000000 
 -1.031132   0.652048   0.000000 
 -1.041503   0.635352   0.000000 
 -1.051603   0.618491   0.000000 
 -1.061430   0.601469   0.000000 
 -1.070982   0.584292   0.000000 
 -1.080256   0.566962   0.000000 
 -1.089250   0.549486   0.000000 
 -1.097961   0.531867   0.000000 
 -1.106387   0.514109   0.000000 
 -1.114525   0.496219   0.000000 
 -1.122375   0.478199   0.000000 
 -1.129933   0.460056   0.000000 
 -1.137198   0.441793   0.000000 
 -1.144168   0.423415   0.000000 
 -1.150840   0.404928   0.000000 
 -1.157214   0.386335   0.000000 
 -1.163288   0.367642   0.000000 
 -1.169060   0.348854   0.000000 
 -1.174528   0.329975   0.000000 
 -1.179692   0.311010   0.000000 
 -1.184549   0.291965   0.000000 
 -1.189099   0.272844   0.000000 
 -1.193340   0.253652   0.000000 
 -1.197272   0.234395   0.000000 
 -1.200892   0.215076   0.000000 
 -1.204201   0.195702   0.000000 
 -1.207198   0.176277   0.000000 
 -1.209881   0.156806   0.000000 
 -1.212250   0.137294   0.000000 
 -1.214305   0.117747   0.000000 
 -1.216044   0.098169   0.000000 
 -1.217468   0.078566   0.000000 
 -1.218575   0.058942   0.000000 
 -1.219367   0.039303   0.000000 
 -1.219842   0.019654   0.000000 
 -1.220000   0.000000   0.000000 
 -1.219842  -0.019654   0.000000 
 -1.219367  -0.039303   0.000000 
 -1.218575  -0.058942   0.000000 
 -1.217468  -0.078566   0.000000 
 -1.216044  -0.098169   0.000000 
 -1.214305  -0.117747   0.000000 
 -1.212250  -0.137294   0.000000 
 -1.209881  -0.156806   0.000000 
 -1.207198  -0.176277   0.000000 
 -1.204201  -0.195702   0.000000 
 -1.200892  -0.215076   0.000000 
 -1.197272  -0.234395   0.000000 
 -1.193340  -0.253652   0.000000 
 -1.189099  -0.272844   0.000000 
 -1.184549  -0.291965   0.000000 
 -1.179692  -0.311010   0.000000 
 -1.174528  -0.329975   0.000000 
 -1.169060  -0.348854   0.000000 
 -1.163288  -0.367642   0.000000 
 -1.157214  -0.386335   0.000000 
 -1.150840  -0.404928   0.000000 
 -1.144168  -0.423415   0.000000 
 -1.137198  -0.441793   0.000000 
 -1.129933  -0.460056   0.000000 
 -1.122375  -0.478199   0.000000 
 -1.114525  -0.496219   0.000000 
 -1.106387  -0.514109   0.000000 
 -1.097961  -0.531867   0.000000 
 -1.089250  -0.549486   0.000000 
 -1.080256  -0.566962   0.000000 
 -1.070982  -0.584292   0.000000 
 -1.061430  -0.601469   0.000000 
 -1.051603  -0.618491   0.000000 
 -1.041503  -0.635352   0.000000 
 -1.031132  -0.652048   0.000000 
 -1.020494  -0.668575   0.000000 
 -1.009590  -0.684929   0.000000 
 -0.998425  -0.701104   0.000000 
 -0.987001  -0.717098   0.000000 
 -0.975320  -0.732906   0.000000 
 -0.963386  -0.748523   0.000000 
 -0.951203  -0.763946   0.000000 
 -0.938772  -0.779171   0.000000 
 -0.926098  -0.794193   0.000000 
 -0.913183  -0.809010   0.000000 
 -0.900031  -0.823616   0.000000 
 -0.886646  -0.838009   0.000000 
 -0.873031  -0.852184   0.000000 
 -0.859189  -0.866138   0.000000 
 -0.845124  -0.879867   0.000000 
 -0.830839  -0.893368   0.000000 
 -0.816339  -0.906637   0.000000 
 -0.801627  -0.919670   0.000000 
 -0.786707  -0.932465   0.000000 
 -0.771583  -0.945018   0.000000 
 -0.756259  -0.957326   0.000000 
 -0.740738  -0.969385   0.000000 
 -0.725025  -0.981192   0.000000 
 -0.709124  -0.992745   0.000000 
 -0.693039  -1.004040   0.000000 
 -0.676774  -1.015075   0.000000 
 -0.660333  -1.025846   0.000000 
 -0.643721  -1.036351   0.000000 
 -0.626942  -1.046587   0.000000 
 -0.610000  -1.056551   0.000000 
 -0.592900  -1.066241   0.000000 
 -0.575646  -1.075654   0.000000 
 -0.558242  -1.084788   0.000000 
 -0.540694  -1.093641   0.000000 
 -0.523005  -1.102210   0.000000 
 -0.505180  -1.110492   0.000000 
 -0.487225  -1.118486   0.000000 
 -0.469143  -1.126191   0.000000 
 -0.450939  -1.133602   0.000000 
 -0.432618  -1.140720   0.000000 
 -0.414185  -1.147541   0.000000 
 -0.395644  -1.154065   0.000000 
 -0.377001  -1.160289   0.000000 
 -0.358260  -1.166212   0.000000 
 -0.339425  -1.171832   0.000000 
 -0.320503  -1.177148   0.000000 
 -0.301498  -1.182159   0.000000 
 -0.282414  -1.186862   0.000000 
 -0.263257  -1.191258   0.000000 
 -0.244031  -1.195345   0.000000 
 -0.224743  -1.199121   0.000000 
 -0.205396  -1.202586   0.000000 
 -0.185995  -1.205739   0.000000 
 -0.166547  -1.208579   0.000000 
 -0.147055  -1.211105   0.000000 
 -0.127525  -1.213317   0.000000 
[...]
<CellData Scalars='scalars'>
<DataArray type='Float32' Name='p' Format='ascii'> 
-18029.096373
-18029.099192
-18029.086505
-18029.043167
-18028.968998
-18028.871713
-18028.766021
-18028.658860
-18028.554302
-18028.453565
-18028.354418
-18028.252214
-18028.144962
-18028.026068
-18027.893157
-18027.742522
-18027.570832
-18027.378951
-18027.170290
-18026.950602
-18026.728412
-18026.515113
-18026.319208
-18026.151201
-18026.015027
-18025.913869
-18025.847908
-18025.817451
-18025.821953
-18025.861567
-18025.936558
-18026.046992
-18026.191907
-18026.367860
-18026.569114
-18026.785654
-18027.007968
-18027.226042
-18027.431292
-18027.618421
-18027.784381
-18027.930582
-18028.059003
-18028.174009
-18028.279192
-18028.378986
-18028.477598
-18028.578461
-18028.682871
-18028.789486
-18028.893510
-18028.984914
-18029.052364
-18029.087505
-18029.091666
-18029.084504
-18029.088460
-18029.092621
-18029.071043
-18029.016246
-18028.932436
-18028.832210
-18028.725481
-18028.620025
-18028.517434
-18028.418344
-18028.319710
-18028.216709
-18028.106615
-18027.983128
-18027.845385
-18027.687702
-18027.509873
-18027.312603
-18027.099281
-18026.877956
-18026.657881
-18026.449789
-18026.263115
-18026.104999
-18025.980057
-18025.890063
-18025.835220
-18025.815586
-18025.830491
-18025.880354
-18025.965414
-18026.085968
-18026.239422
-18026.422686
-18026.628481
-18026.847511
-18027.069370
-18027.284557
-18027.484737
-18027.665556
-18027.825377
-18027.966286
-18028.090457
-18028.202095
-18028.305209
-18028.404622
-18028.503604
-18028.605496
-18028.710633
-18028.816953
-18028.918635
-18029.004423
-18029.063995
-18029.090006
-18029.087369
-18029.082003
-18029.088733
-18029.087687
-18029.056719
-18028.992599
-18028.903315
-18028.800014
-18028.693421
-18028.588647
-18028.487921
-18028.389263
-18028.289787
-18028.185127
-18028.072009
-18027.945862
-18027.801980
-18027.638635
-18027.454689
-18027.252531
-18027.035890
-18026.814382
-18026.596717
-18026.393900
-18026.214252
-18026.064345
-18025.951692
-18025.871589
-18025.824596
-18025.814566
-18025.839245
-18025.898987
-18025.994086
-18026.123848
-18026.286466
-18026.477073
-18026.687644
-18026.908197
-18027.128931
-18027.339979
-18027.535202
-18027.710234
-18027.865053
-18028.000864
-18028.120735
-18028.229647
-18028.331351
-18028.429804
-18028.529394
-18028.632394
-18028.738032
-18028.844261
-18028.942577
-18029.021703
-18029.071953
-18029.088506
-18029.082730
-18029.080684
-18029.088551
-18029.079843
-18029.038642
-18028.967065
-18028.872250
-18028.767636
-18028.660747
-18028.556997
-18028.456907
-18028.357795
-18028.257318
-18028.150907
-18028.034367
-18027.902934
-18027.754106
-18027.584667
-18027.395470
-18027.188003
-18026.968945
-18026.747290
-18026.533257
-18026.336375
-18026.165162
-18026.025396
-18025.920281
-18025.850500
-18025.815643
-18025.815621
-18025.850272
-18025.920008
-18026.025054
-18026.164878
-18026.335636
-18026.532734
-18026.747296
-18026.968826
-18027.188918
-18027.396521
-18027.585588
-18027.754527
-18027.903167
-18028.034657
-18028.151300
-18028.257790
-18028.358176
-18028.456373
-18028.556099
-18028.660008
-18028.766465
-18028.870818
-18028.965292
-18029.037847
-18029.078660
-18029.086732
-18029.079502
-18029.081457
-18029.087414
-18029.071089
-18029.020589
-18028.941099
-18028.842874
-18028.736872
-18028.630620
-18028.527916
-18028.428667
-18028.329669
-18028.228124
-18028.119712
-18027.999295
-18027.862734
-18027.707961
-18027.534270
-18027.339320
-18027.127726
-18026.906832
-18026.685916
-18026.475459
-18026.284897
-18026.121961
-18025.991858
-18025.896571
-18025.836556
-18025.811670
-18025.821527
-18025.866245
-18025.946122
-18026.061252
-18026.210273
-18026.389671
-18026.592716
-18026.810676
-18027.032729
-18027.249030
-18027.451529
-18027.635565
-18027.798797
-18027.942042
-18028.068462
-18028.182035
-18028.285876
-18028.385671
-18028.483942
-18028.584554
-18028.688237
-18028.796103
-18028.899763
-18028.988620
-18029.052490
-18029.083640
-18029.084822
-18029.078456
-18029.083731
-18029.085913
-18029.059902
-18029.000466
-18028.913894
-18028.812190
-18028.705961
-18028.601050
-18028.499022
-18028.400484
-18028.301372
-18028.197852
-18028.086163
-18027.961852
-18027.820454
-18027.660241
-18027.479177
-18027.279486
-18027.064857
-18026.842986
-18026.623525
-18026.417229
-18026.233647
-18026.079351
-18025.958389
-18025.871941
-18025.822214
-18025.813768
-18025.830536
-18025.888119
-18025.977818
-18026.102407
-18026.260170
-18026.446713
-18026.654897
-18026.874801
-18027.096115
-18027.309011
-18027.506690
-18027.684814
-18027.842702
-18027.980946
-18028.103295
-18028.213663
-18028.315947
-18028.414775
-18028.513750
-18028.615364
-18028.721615
-18028.828072
-18028.928457
-18029.011380
-18029.066314
-18029.088176
-18029.083878
-18029.080115
-18029.087369
-18029.083617
-18029.047988
-18028.979935
-18028.888258
-18028.783597
-18028.677800
-18028.573481
-18028.473278
-18028.374780
-18028.275076
-18028.169393
-18028.054660
-18027.926512
-18027.780266
-18027.614601
-18027.428223
-18027.223405
-18027.005513
-18026.787723
-18026.569774
-18026.369355
-18026.194380
-18026.050014
-18025.940241
-18025.865137
-18025.824966
-18025.819338
-18025.848090
-18025.911504
-18026.009957
-18026.142789
-18026.307976
-18026.499470
-18026.711064
-18026.932389
-18027.151827
-18027.360693
-18027.553745
-18027.727288
-18027.879116
-18028.013324
-18028.132627
-18028.239469
-18028.340787
-18028.438717
-18028.536783
-18028.639397
-18028.744125
-18028.848706
-18028.944902
-18029.021658
-18029.068633
-18029.082230
-18029.075909
-53739.180021
-53739.236319
-53739.288205
-53739.312727
-53739.307253
-53739.279635
-53739.237478
-53739.186382
-53739.127401
-53739.062935
-53738.992790
-53738.921360
-53738.848487
-53738.771066
-53738.691633
-53738.606050
-53738.509359
-53738.401778
-53738.280553
-53738.146346
-53738.000804
-53737.850760
-53737.700728
-53737.559506
-53737.436599
-53737.338521
-53737.271810
-53737.239296
-53737.244190
-53737.285566
-53737.360901
-53737.466548
-53737.594706
-53737.739131
-53737.890073
-53738.040208
-53738.182689
-53738.313795
-53738.431262
-53738.535416
-53738.628304
-53738.712552
-53738.791053
-53738.865847
-53738.938811
-53739.009672
-53739.077691
-53739.141367
-53739.198984
-53739.247835
-53739.286466
-53739.310533
-53739.310613
-53739.279485
-53739.223654
-53739.180976
-53739.202576
-53739.258169
-53739.302285
-53739.313830
-53739.298005
-53739.265604
-53739.219243
-53739.165173
-53739.104601
-53739.036616
-53738.967472
-53738.895167
-53738.820793
-53738.742531
-53738.661586
-53738.572842
-53738.472366
-53738.361748
-53738.236170
-53738.098006
-53737.949895
-53737.799226
-53737.651444
-53737.515191
-53737.399185
-53737.310276
-53737.253620
-53737.232554
-53737.248493
-53737.300425
-53737.385406
-53737.498240
-53737.632174
-53737.778387
-53737.930284
-53738.078168
-53738.218571
-53738.345366
-53738.459263
-53738.560570
-53738.650058
-53738.732822
-53738.809709
-53738.883679
-53738.956251
-53739.026862
-53739.094062
-53739.156635
-53739.211154
-53739.257677
-53739.292650
-53739.311375
-53739.303235
-53739.263285
-53739.206123
-53739.177383
-53739.214673
-53739.271198
-53739.306099
-53739.309715
-53739.288012
-53739.250586
-53739.203508
-53739.146904
-53739.083978
-53739.015721
-53738.945064
-53738.872498
-53738.797908
-53738.720635
-53738.636518
-53738.544534
-53738.442409
-53738.327324
-53738.197960
-53738.056340
-53737.907115
-53737.756639
-53737.610995
-53737.481005
-53737.365226
-53737.288431
-53737.241097
-53737.231187
-53737.257377
-53737.319075
-53737.412478
-53737.531931
-53737.670044
-53737.819093
-53737.970495
-53738.116742
-53738.253348
-53738.376573
-53738.486338
-53738.584279
-53738.671681
-53738.752581
-53738.828751
-53738.902739
-53738.974066
-53739.044074
-53739.110058
-53739.169471
-53739.222676
-53739.266195
-53739.297414
-53739.309305
-53739.292298
-53739.244868
-53739.189752
-53739.179975
-53739.228042
-53739.282839
-53739.305292
-53739.303712
-53739.276768
-53739.235614
-53739.185569
-53739.127088
-53739.062400
-53738.993984
-53738.922225
-53738.848624
-53738.773693
-53738.693396
-53738.608472
-53738.513543
-53738.406211
-53738.286920
-53738.153861
-53738.011081
-53737.859946
-53737.709698
-53737.567237
-53737.441510
-53737.340261
-53737.269036
-53737.232429
-53737.232395
-53737.268945
-53737.339977
-53737.441465
-53737.566896
-53737.709163
-53737.860048
-53738.010524
-53738.154168
-53738.287954
-53738.407200
-53738.513623
-53738.608148
-53738.693583
-53738.772544
-53738.848538
-53738.921144
-53738.992750
-53739.061235
-53739.125531
-53739.183852
-53739.234386
-53739.275199
-53739.301217
-53739.306759
-53739.280554
-53739.227030
-53739.178657
-53739.189207
-53739.243504
-53739.291252
-53739.307896
-53739.296447
-53739.265189
-53739.221471
-53739.168470
-53739.108409
-53739.042767
-53738.972997
-53738.901056
-53738.827637
-53738.751285
-53738.670158
-53738.582733
-53738.484564
-53738.375266
-53738.251825
-53738.115452
-53737.968858
-53737.817592
-53737.668617
-53737.529953
-53737.410596
-53737.317131
-53737.255575
-53737.229132
-53737.239693
-53737.286203
-53737.366636
-53737.475844
-53737.607016
-53737.752773
-53737.903579
-53738.052361
-53738.193969
-53738.323345
-53738.438760
-53738.541556
-53738.633380
-53738.716747
-53738.794566
-53738.868269
-53738.941597
-53739.011241
-53739.080761
-53739.142345
-53739.199416
-53739.245641
-53739.283976
-53739.305054
-53739.301438
-53739.267514
-53739.210171
-53739.173472
-53739.202258
-53739.258919
-53739.299324
-53739.306577
-53739.288239
-53739.252155
-53739.206169
-53739.152054
-53739.089356
-53739.022883
-53738.952818
-53738.879814
-53738.805423
-53738.727581
-53738.645221
-53738.554953
-53738.453221
-53738.340000
-53738.213296
-53738.073370
-53737.924884
-53737.773237
-53737.626092
-53737.491669
-53737.378869
-53737.294002
-53737.245719
-53737.231593
-53737.251955
-53737.308622
-53737.396962
-53737.512985
-53737.648710
-53737.796475
-53737.947462
-53738.094988
-53738.232850
-53738.358440
-53738.470095
-53738.569099
-53738.658690
-53738.740110
-53738.816888
-53738.890841
-53738.962953
-53739.033137
-53739.100520
-53739.160728
-53739.214911
-53739.259761
-53739.293446
-53739.309180
-53739.297138
-53739.253735
-53739.197710
-53739.175883
-53739.219265
-53739.275086
-53739.305997
-53739.305633
-53739.282373
-53739.243072
-53739.193834
-53739.137036
-53739.073155
-53739.005114
-53738.934355
-53738.861334
-53738.786312
-53738.707527
-53738.623262
-53738.530210
-53738.426084
-53738.308964
-53738.178576
-53738.038520
-53737.893757
-53737.757901
-53737.591641
-53737.462190
-53737.356606
-53737.280064
-53737.237323
-53737.230940
-53737.261419
-53737.326630
-53737.423048
-53737.544317
-53737.684084
-53737.833946
-53737.984331
-53738.130055
-53738.264955
-53738.386612
-53738.495660
-53738.591896
-53738.679026
-53738.758891
-53738.834902
-53738.908093
-53738.979477
-53739.048622
-53739.114298
-53739.173416
-53739.225359
-53739.267474
-53739.298050
-53739.307384
-53739.291343
-53739.240775
-53739.197983
-89449.580537
-89449.646725
-89449.741699
-89449.793427
-89449.808269
-89449.803949
-89449.797876
-89449.792864
-89449.789851
-89449.785617
-89449.779273
-89449.770235
-89449.760969
-89449.750340
-89449.733520
-89449.713801
-89449.685163
-89449.640564
-89449.580173
-89449.503480
-89449.416259
-89449.317801
-89449.215585
-89449.116854
-89449.027246
-89448.953401
-89448.903958
-89448.877981
-89448.881607
-89448.913342
-89448.970695
-89449.049121
-89449.141488
-89449.241726
-89449.342974
-89449.439210
-89449.525152
-89449.596675
-89449.651887
-89449.692604
-89449.718899
-89449.737516
-89449.752090
-89449.763021
-89449.772895
-89449.781012
-89449.788129
-89449.790539
-89449.794825
-89449.799680
-89449.806876
-89449.808112
-89449.789107
-89449.727056
-89449.632833
-89449.572215
-89449.600273
-89449.691313
-89449.770485
-89449.804486
-89449.808888
-89449.802465
-89449.796928
-89449.793290
-89449.789857
-89449.784446
-89449.777215
-89449.767893
-89449.756797
-89449.743859
-89449.726761
-89449.703512
-89449.669201
-89449.620452
-89449.555162
-89449.474348
-89449.381534
-89449.281469
-89449.180032
-89449.082947
-89448.997676
-89448.930291
-89448.886811
-89448.870398
-89448.882812
-89448.922824
-89448.987035
-89449.070401
-89449.166012
-89449.267443
-89449.368033
-89449.462189
-89449.544146
-89449.611130
-89449.662448
-89449.698385
-89449.723146
-89449.740278
-89449.752772
-89449.763800
-89449.773793
-89449.780882
-89449.786918
-89449.790408
-89449.794280
-89449.799566
-89449.806620
-89449.804602
-89449.775123
-89449.700772
-89449.607503
-89449.567986
-89449.620009
-89449.713755
-89449.783638
-89449.805853
-89449.805242
-89449.797527
-89449.794092
-89449.789880
-89449.785895
-89449.779625
-89449.772645
-89449.762106
-89449.751147
-89449.737675
-89449.720133
-89449.693212
-89449.654592
-89449.600836
-89449.532680
-89449.448421
-89449.353447
-89449.251522
-89449.150869
-89449.051734
-89448.975575
-89448.904177
-89448.875650
-89448.866868
-89448.888775
-89448.935859
-89449.006430
-89449.093855
-89449.192234
-89449.294188
-89449.393403
-89449.484534
-89449.562790
-89449.625426
-89449.671589
-89449.704251
-89449.726249
-89449.741699
-89449.754137
-89449.764664
-89449.773554
-89449.781080
-89449.785503
-89449.789130
-89449.792767
-89449.799282
-89449.804739
-89449.796974
-89449.756251
-89449.669895
-89449.585039
-89449.571533
-89449.644429
-89449.735015
-89449.787356
-89449.805546
-89449.801021
-89449.794314
-89449.789061
-89449.786628
-89449.781308
-89449.775419
-89449.766369
-89449.756410
-89449.744473
-89449.729967
-89449.709856
-89449.680638
-89449.638563
-89449.580798
-89449.506652
-89449.418488
-89449.321013
-89449.219030
-89449.119133
-89449.027843
-89448.952076
-89448.897580
-89448.869124
-89448.868977
-89448.897404
-89448.951957
-89449.027666
-89449.118951
-89449.218802
-89449.320558
-89449.418442
-89449.506174
-89449.580094
-89449.638199
-89449.680320
-89449.709316
-89449.729603
-89449.743638
-89449.755245
-89449.765943
-89449.774373
-89449.780990
-89449.785065
-89449.788470
-89449.793256
-89449.799822
-89449.803340
-89449.788936
-89449.735049
-89449.642110
-89449.571146
-89449.584402
-89449.669485
-89449.754796
-89449.795939
-89449.803644
-89449.797713
-89449.791773
-89449.787640
-89449.784468
-89449.779057
-89449.772111
-89449.763175
-89449.752670
-89449.740511
-89449.724999
-89449.702620
-89449.670605
-89449.623840
-89449.561312
-89449.483067
-89449.391919
-89449.292602
-89449.190682
-89449.092610
-89449.004980
-89448.934801
-89448.887269
-89448.866891
-89448.874701
-89448.911262
-89448.972233
-89449.053053
-89449.147436
-89449.248685
-89449.349844
-89449.445011
-89449.528991
-89449.598869
-89449.651705
-89449.689926
-89449.715989
-89449.734116
-89449.747088
-89449.758525
-89449.768097
-89449.776465
-89449.781905
-89449.786691
-89449.789147
-89449.795098
-89449.800885
-89449.801635
-89449.777795
-89449.710595
-89449.615871
-89449.563711
-89449.603274
-89449.695952
-89449.770780
-89449.799623
-89449.801618
-89449.795058
-89449.789527
-89449.785821
-89449.782922
-89449.777261
-89449.769325
-89449.759582
-89449.748680
-89449.735856
-89449.718575
-89449.694030
-89449.657946
-89449.606992
-89449.539712
-89449.457494
-89449.363429
-89449.262759
-89449.160828
-89449.065013
-89448.982362
-89448.918402
-89448.880294
-89448.863770
-89448.888670
-89448.926863
-89448.995590
-89449.079945
-89449.177148
-89449.278386
-89449.378794
-89449.471091
-89449.551717
-89449.617349
-89449.664551
-89449.699416
-89449.723095
-89449.738809
-89449.751502
-89449.762680
-89449.772349
-89449.779693
-89449.783400
-89449.788425
-89449.791994
-89449.797940
-89449.804389
-89449.799785
-89449.765687
-89449.686061
-89449.595566
-89449.567008
-89449.628786
-89449.723237
-89449.785037
-89449.804250
-89449.802630
-89449.795126
-89449.790869
-89449.787311
-89449.783479
-89449.777056
-89449.768700
-89449.758752
-89449.747350
-89449.733673
-89449.714801
-89449.687317
-89449.647606
-89449.592255
-89449.520573
-89449.433158
-89449.334824
-89449.235438
-89449.137772
-89449.043492
-89448.964212
-89448.905254
-89448.871893
-89448.866822
-89448.890606
-89448.940480
-89449.013274
-89449.102404
-89449.201380
-89449.303323
-89449.402208
-89449.492111
-89449.569077
-89449.629536
-89449.674999
-89449.706570
-89449.727403
-89449.743717
-89449.755410
-89449.766136
-89449.774856
-89449.782595
-89449.787055
-89449.791724
-89449.794571
-89449.801749
-89449.806273
-89449.799520
-89449.755956
-89449.674851
-89449.581810
-125160.190669
-125160.240430
-125160.297102
-125160.344055
-125160.367065
-125160.382652
-125160.394421
-125160.414080
-125160.436286
-125160.462164
-125160.487445
-125160.510896
-125160.527926
-125160.539631
-125160.541012
-125160.530894
-125160.509992
-125160.480343
-125160.448783
-125160.417588
-125160.395379
-125160.379849
-125160.364348
-125160.346079
-125160.323472
-125160.300064
-125160.281044
-125160.270505
-125160.272447
-125160.285148
-125160.305265
-125160.328882
-125160.350603
-125160.367998
-125160.381697
-125160.399540
-125160.423767
-125160.455070
-125160.487707
-125160.515466
-125160.534063
-125160.541120
-125160.537675
-125160.525408
-125160.505922
-125160.482378
-125160.456969
-125160.432242
-125160.410028
-125160.393225
-125160.379773
-125160.365667
-125160.337848
-125160.290418
-125160.228617
-125160.194875
-125160.208017
-125160.266725
-125160.321306
-125160.357265
-125160.374924
-125160.387950
-125160.402615
-125160.422931
-125160.446544
-125160.472453
-125160.496532
-125160.518076
-125160.533298
-125160.542098
-125160.538937
-125160.524669
-125160.500193
-125160.468897
-125160.435871
-125160.408417
-125160.387876
-125160.372781
-125160.356316
-125160.336580
-125160.311836
-125160.289201
-125160.272108
-125160.265321
-125160.270466
-125160.286092
-125160.308477
-125160.332431
-125160.353298
-125160.369691
-125160.384289
-125160.403195
-125160.430298
-125160.462392
-125160.494099
-125160.520258
-125160.534571
-125160.539142
-125160.532696
-125160.518314
-125160.497231
-125160.473561
-125160.447749
-125160.423534
-125160.402820
-125160.387489
-125160.374608
-125160.358061
-125160.324637
-125160.272023
-125160.211314
-125160.192329
-125160.218727
-125160.281800
-125160.330401
-125160.361438
-125160.376371
-125160.388888
-125160.406063
-125160.426694
-125160.451637
-125160.477285
-125160.501051
-125160.521304
-125160.534668
-125160.539608
-125160.533582
-125160.516728
-125160.489824
-125160.457634
-125160.426057
-125160.400603
-125160.381668
-125160.367355
-125160.348085
-125160.328690
-125160.298725
-125160.282775
-125160.262755
-125160.262718
-125160.270119
-125160.289286
-125160.312814
-125160.336484
-125160.356100
-125160.371766
-125160.387353
-125160.408516
-125160.437136
-125160.469872
-125160.500284
-125160.523055
-125160.535191
-125160.536089
-125160.527341
-125160.510743
-125160.488813
-125160.463642
-125160.438404
-125160.414700
-125160.395658
-125160.381080
-125160.368378
-125160.348398
-125160.308880
-125160.251719
-125160.197058
-125160.191828
-125160.234097
-125160.296193
-125160.339110
-125160.362177
-125160.377360
-125160.390178
-125160.408322
-125160.430525
-125160.456207
-125160.480400
-125160.504399
-125160.522714
-125160.533935
-125160.535504
-125160.526363
-125160.506400
-125160.477853
-125160.445293
-125160.415365
-125160.391482
-125160.374938
-125160.359494
-125160.341022
-125160.317914
-125160.293746
-125160.273585
-125160.262556
-125160.262009
-125160.273615
-125160.293817
-125160.317961
-125160.340794
-125160.359121
-125160.374188
-125160.390812
-125160.414700
-125160.444838
-125160.477364
-125160.506138
-125160.525636
-125160.534913
-125160.533327
-125160.521833
-125160.503268
-125160.480366
-125160.455002
-125160.429980
-125160.407572
-125160.389848
-125160.376501
-125160.362740
-125160.338246
-125160.293749
-125160.232983
-125160.190805
-125160.196376
-125160.250263
-125160.308016
-125160.347022
-125160.367077
-125160.380038
-125160.394140
-125160.413631
-125160.436880
-125160.462426
-125160.487414
-125160.509549