<VTKFile type='UnstructuredGrid' version='0.1' byte_order='BigEndian'> 
<UnstructuredGrid> 
<Piece NumberOfPoints=' 10251 ' NumberOfCells='  2500 '> 
<Points> 
<DataArray type='Float32' NumberOfComponents='3' Format='ascii'> 
0.000000e+00 0.000000e+00 0.000000e+00 
6.250000e+02 0.000000e+00 0.000000e+00 
1.250000e+03 0.000000e+00 0.000000e+00 
1.875000e+03 0.000000e+00 0.000000e+00 
2.500000e+03 0.000000e+00 0.000000e+00 
3.125000e+03 0.000000e+00 0.000000e+00 
3.750000e+03 0.000000e+00 0.000000e+00 
4.375000e+03 0.000000e+00 0.000000e+00 
5.000000e+03 0.000000e+00 0.000000e+00 
5.625000e+03 0.000000e+00 0.000000e+00 
6.250000e+03 0.000000e+00 0.000000e+00 
6.875000e+03 0.000000e+00 0.000000e+00 
7.500000e+03 0.000000e+00 0.000000e+00 
8.125000e+03 0.000000e+00 0.000000e+00 
8.750000e+03 0.000000e+00 0.000000e+00 
9.375000e+03 0.000000e+00 0.000000e+00 
1.000000e+04 0.000000e+00 0.000000e+00 
1.062500e+04 0.000000e+00 0.000000e+00 
1.125000e+04 0.000000e+00 0.000000e+00 
1.187500e+04 0.000000e+00 0.000000e+00 
1.250000e+04 0.000000e+00 0.000000e+00 
1.312500e+04 0.000000e+00 0.000000e+00 
1.375000e+04 0.000000e+00 0.000000e+00 
1.437500e+04 0.000000e+00 0.000000e+00 
1.500000e+04 0.000000e+00 0.000000e+00 
1.562500e+04 0.000000e+00 0.000000e+00 
1.625000e+04 0.000000e+00 0.000000e+00 
1.687500e+04 0.000000e+00 0.000000e+00 
1.750000e+04 0.000000e+00 0.000000e+00 
1.812500e+04 0.000000e+00 0.000000e+00 
1.875000e+04 0.000000e+00 0.000000e+00 
1.937500e+04 0.000000e+00 0.000000e+00 
2.000000e+04 0.000000e+00 0.000000e+00 
2.062500e+04 0.000000e+00 0.000000e+00 
2.125000e+04 0.000000e+00 0.000000e+00 
2.187500e+04 0.000000e+00 0.000000e+00 
2.250000e+04 0.000000e+00 0.000000e+00 
2.312500e+04 0.000000e+00 0.000000e+00 
2.375000e+04 0.000000e+00 0.000000e+00 
2.437500e+04 0.000000e+00 0.000000e+00 
2.500000e+04 0.000000e+00 0.000000e+00 
2.562500e+04 0.000000e+00 0.000000e+00 
2.625000e+04 0.000000e+00 0.000000e+00 
2.687500e+04 0.000000e+00 0.000000e+00 
2.750000e+04 0.000000e+00 0.000000e+00 
2.812500e+04 0.000000e+00 0.000000e+00 
2.875000e+04 0.000000e+00 0.000000e+00 
2.937500e+04 0.000000e+00 0.000000e+00 
3.000000e+04 0.000000e+00 0.000000e+00 
3.062500e+04 0.000000e+00 0.000000e+00 
3.125000e+04 0.000000e+00 0.000000e+00 
3.187500e+04 0.000000e+00 0.000000e+00 
3.250000e+04 0.000000e+00 0.000000e+00 
3.312500e+04 0.000000e+00 0.000000e+00 
3.375000e+04 0.000000e+00 0.000000e+00 
3.437500e+04 0.000000e+00 0.000000e+00 
3.500000e+04 0.000000e+00 0.000000e+00 
3.562500e+04 0.000000e+00 0.000000e+00 
3.625000e+04 0.000000e+00 0.000000e+00 
3.687500e+04 0.000000e+00 0.000000e+00 
3.750000e+04 0.000000e+00 0.000000e+00 
3.812500e+04 0.000000e+00 0.000000e+00 
3.875000e+04 0.000000e+00 0.000000e+00 
3.937500e+04 0.000000e+00 0.000000e+00 
4.000000e+04 0.000000e+00 0.000000e+00 
4.062500e+04 0.000000e+00 0.000000e+00 
4.125000e+04 0.000000e+00 0.000000e+00 
4.187500e+04 0.000000e+00 0.000000e+00 
4.250000e+04 0.000000e+00 0.000000e+00 
4.312500e+04 0.000000e+00 0.000000e+00 
4.375000e+04 0.000000e+00 0.000000e+00 
4.437500e+04 0.000000e+00 0.000000e+00 
4.500000e+04 0.000000e+00 0.000000e+00 
4.562500e+04 0.000000e+00 0.000000e+00 
4.625000e+04 0.000000e+00 0.000000e+00 
4.687500e+04 0.000000e+00 0.000000e+00 
4.750000e+04 0.000000e+00 0.000000e+00 
4.812500e+04 0.000000e+00 0.000000e+00 
4.875000e+04 0.000000e+00 0.000000e+00 
4.937500e+04 0.000000e+00 0.000000e+00 
5.000000e+04 0.000000e+00 0.000000e+00 
5.062500e+04 0.000000e+00 0.000000e+00 
5.125000e+04 0.000000e+00 0.000000e+00 
5.187500e+04 0.000000e+00 0.000000e+00 
5.250000e+04 0.000000e+00 0.000000e+00 
5.312500e+04 0.000000e+00 0.000000e+00 
5.375000e+04 0.000000e+00 0.000000e+00 
5.437500e+04 0.000000e+00 0.000000e+00 
5.500000e+04 0.000000e+00 0.000000e+00 
5.562500e+04 0.000000e+00 0.000000e+00 
5.625000e+04 0.000000e+00 0.000000e+00 
5.687500e+04 0.000000e+00 0.000000e+00 
5.750000e+04 0.000000e+00 0.000000e+00 
5.812500e+04 0.000000e+00 0.000000e+00 
5.875000e+04 0.000000e+00 0.000000e+00 
5.937500e+04 0.000000e+00 0.000000e+00 
6.000000e+04 0.000000e+00 0.000000e+00 
6.062500e+04 0.000000e+00 0.000000e+00 
6.125000e+04 0.000000e+00 0.000000e+00 
6.187500e+04 0.000000e+00 0.000000e+00 
6.250000e+04 0.000000e+00 0.000000e+00 
6.312500e+04 0.000000e+00 0.000000e+00 
6.375000e+04 0.000000e+00 0.000000e+00 
6.437500e+04 0.000000e+00 0.000000e+00 
6.500000e+04 0.000000e+00 0.000000e+00 
6.562500e+04 0.000000e+00 0.000000e+00 
6.625000e+04 0.000000e+00 0.000000e+00 
6.687500e+04 0.000000e+00 0.000000e+00 
6.750000e+04 0.000000e+00 0.000000e+00 
6.812500e+04 0.000000e+00 0.000000e+00 
6.875000e+04 0.000000e+00 0.000000e+00 
6.937500e+04 0.000000e+00 0.000000e+00 
7.000000e+04 0.000000e+00 0.000000e+00 
7.062500e+04 0.000000e+00 0.000000e+00 
7.125000e+04 0.000000e+00 0.000000e+00 
7.187500e+04 0.000000e+00 0.000000e+00 
7.250000e+04 0.000000e+00 0.000000e+00 
7.312500e+04 0.000000e+00 0.000000e+00 
7.375000e+04 0.000000e+00 0.000000e+00 
7.437500e+04 0.000000e+00 0.000000e+00 
7.500000e+04 0.000000e+00 0.000000e+00 
7.562500e+04 0.000000e+00 0.000000e+00 
7.625000e+04 0.000000e+00 0.000000e+00 
7.687500e+04 0.000000e+00 0.000000e+00 
7.750000e+04 0.000000e+00 0.000000e+00 
7.812500e+04 0.000000e+00 0.000000e+00 
7.875000e+04 0.000000e+00 0.000000e+00 
7.937500e+04 0.000000e+00 0.000000e+00 
8.000000e+04 0.000000e+00 0.000000e+00 
8.062500e+04 0.000000e+00 0.000000e+00 
8.125000e+04 0.000000e+00 0.000000e+00 
8.187500e+04 0.000000e+00 0.000000e+00 
8.250000e+04 0.000000e+00 0.000000e+00 
8.312500e+04 0.000000e+00 0.000000e+00 
8.375000e+04 0.000000e+00 0.000000e+00 
8.437500e+04 0.000000e+00 0.000000e+00 
8.500000e+04 0.000000e+00 0.000000e+00 
8.562500e+04 0.000000e+00 0.000000e+00 
8.625000e+04 0.000000e+00 0.000000e+00 
8.687500e+04 0.000000e+00 0.000000e+00 
8.750000e+04 0.000000e+00 0.000000e+00 
8.812500e+04 0.000000e+00 0.000000e+00 
8.875000e+04 0.000000e+00 0.000000e+00 
8.937500e+04 0.000000e+00 0.000000e+00 
9.000000e+04 0.000000e+00 0.000000e+00 
9.062500e+04 0.000000e+00 0.000000e+00 
9.125000e+04 0.000000e+00 0.000000e+00 
9.187500e+04 0.000000e+00 0.000000e+00 
9.250000e+04 0.000000e+00 0.000000e+00 
9.312500e+04 0.000000e+00 0.000000e+00 
9.375000e+04 0.000000e+00 0.000000e+00 
9.437500e+04 0.000000e+00 0.000000e+00 
9.500000e+04 0.000000e+00 0.000000e+00 
9.562500e+04 0.000000e+00 0.000000e+00 
9.625000e+04 0.000000e+00 0.000000e+00 
9.687500e+04 0.000000e+00 0.000000e+00 
9.750000e+04 0.000000e+00 0.000000e+00 
9.812500e+04 0.000000e+00 0.000000e+00 
9.875000e+04 0.000000e+00 0.000000e+00 
9.937500e+04 0.000000e+00 0.000000e+00 
1.000000e+05 0.000000e+00 0.000000e+00 
1.006250e+05 0.000000e+00 0.000000e+00 
1.012500e+05 0.000000e+00 0.000000e+00 
1.018750e+05 0.000000e+00 0.000000e+00 
1.025000e+05 0.000000e+00 0.000000e+00 
1.031250e+05 0.000000e+00 0.000000e+00 
1.037500e+05 0.000000e+00 0.000000e+00 
1.043750e+05 0.000000e+00 0.000000e+00 
1.050000e+05 0.000000e+00 0.000000e+00 
1.056250e+05 0.000000e+00 0.000000e+00 
1.062500e+05 0.000000e+00 0.000000e+00 
1.068750e+05 0.000000e+00 0.000000e+00 
1.075000e+05 0.000000e+00 0.000000e+00 
1.081250e+05 0.000000e+00 0.000000e+00 
1.087500e+05 0.000000e+00 0.000000e+00 
1.093750e+05 0.000000e+00 0.000000e+00 
1.100000e+05 0.000000e+00 0.000000e+00 
1.106250e+05 0.000000e+00 0.000000e+00 
1.112500e+05 0.000000e+00 0.000000e+00 
1.118750e+05 0.000000e+00 0.000000e+00 
1.125000e+05 0.000000e+00 0.000000e+00 
1.131250e+05 0.000000e+00 0.000000e+00 
1.137500e+05 0.000000e+00 0.000000e+00 
1.143750e+05 0.000000e+00 0.000000e+00 
1.150000e+05 0.000000e+00 0.000000e+00 
1.156250e+05 0.000000e+00 0.000000e+00 
1.162500e+05 0.000000e+00 0.000000e+00 
1.168750e+05 0.000000e+00 0.000000e+00 
1.175000e+05 0.000000e+00 0.000000e+00 
1.181250e+05 0.000000e+00 0.000000e+00 
1.187500e+05 0.000000e+00 0.000000e+00 
1.193750e+05 0.000000e+00 0.000000e+00 
1.200000e+05 0.000000e+00 0.000000e+00 
1.206250e+05 0.000000e+00 0.000000e+00 
1.212500e+05 0.000000e+00 0.000000e+00 
1.218750e+05 0.000000e+00 0.000000e+00 
1.225000e+05 0.000000e+00 0.000000e+00 
1.231250e+05 0.000000e+00 0.000000e+00 
1.237500e+05 0.000000e+00 0.000000e+00 
1.243750e+05 0.000000e+00 0.000000e+00 
1.250000e+05 0.000000e+00 0.000000e+00 
0.000000e+00 5.000000e+01 0.000000e+00 
6.250000e+02 5.000000e+01 0.000000e+00 
1.250000e+03 5.000000e+01 0.000000e+00 
1.875000e+03 5.000000e+01 0.000000e+00 
2.500000e+03 5.000000e+01 0.000000e+00 
3.125000e+03 5.000000e+01 0.000000e+00 
3.750000e+03 5.000000e+01 0.000000e+00 
4.375000e+03 5.000000e+01 0.000000e+00 
5.000000e+03 5.000000e+01 0.000000e+00 
5.625000e+03 5.000000e+01 0.000000e+00 
6.250000e+03 5.000000e+01 0.000000e+00 
6.875000e+03 5.000000e+01 0.000000e+00 
7.500000e+03 5.000000e+01 0.000000e+00 
8.125000e+03 5.000000e+01 0.000000e+00 
8.750000e+03 5.000000e+01 0.000000e+00 
9.375000e+03 5.000000e+01 0.000000e+00 
1.000000e+04 5.000000e+01 0.000000e+00 
1.062500e+04 5.000000e+01 0.000000e+00 
1.125000e+04 5.000000e+01 0.000000e+00 
1.187500e+04 5.000000e+01 0.000000e+00 
1.250000e+04 5.000000e+01 0.000000e+00 
1.312500e+04 5.000000e+01 0.000000e+00 
1.375000e+04 5.000000e+01 0.000000e+00 
1.437500e+04 5.000000e+01 0.000000e+00 
1.500000e+04 5.000000e+01 0.000000e+00 
1.562500e+04 5.000000e+01 0.000000e+00 
1.625000e+04 5.000000e+01 0.000000e+00 
1.687500e+04 5.000000e+01 0.000000e+00 
1.750000e+04 5.000000e+01 0.000000e+00 
1.812500e+04 5.000000e+01 0.000000e+00 
1.875000e+04 5.000000e+01 0.000000e+00 
1.937500e+04 5.000000e+01 0.000000e+00 
2.000000e+04 5.000000e+01 0.000000e+00 
2.062500e+04 5.000000e+01 0.000000e+00 
2.125000e+04 5.000000e+01 0.000000e+00 
2.187500e+04 5.000000e+01 0.000000e+00 
2.250000e+04 5.000000e+01 0.000000e+00 
2.312500e+04 5.000000e+01 0.000000e+00 
2.375000e+04 5.000000e+01 0.000000e+00 
2.437500e+04 5.000000e+01 0.000000e+00 
2.500000e+04 5.000000e+01 0.000000e+00 
2.562500e+04 5.000000e+01 0.000000e+00 
2.625000e+04 5.000000e+01 0.000000e+00 
[...]
<CellData Scalars='scalars'>
<DataArray type='Float32' Name='div.v' Format='ascii'> 
-2.178881e-14
1.663324e-13
2.453672e-13
2.139075e-13
1.606462e-13
1.265953e-13
1.053850e-13
9.074733e-14
7.862487e-14
6.806613e-14
5.903217e-14
5.149735e-14
4.525434e-14
4.003218e-14
3.559823e-14
3.178582e-14
2.848091e-14
2.560095e-14
2.308003e-14
2.086413e-14
1.890715e-14
1.717104e-14
1.562448e-14
1.424112e-14
1.299924e-14
1.188058e-14
1.086949e-14
9.952940e-15
9.119189e-15
8.358941e-15
7.663265e-15
7.025291e-15
6.438533e-15
5.897218e-15
5.397022e-15
4.933066e-15
4.502948e-15
4.101990e-15
3.729078e-15
3.380160e-15
3.052941e-15
2.744438e-15
2.451219e-15
2.172778e-15
1.912235e-15
1.679989e-15
1.478117e-15
1.322390e-15
1.119159e-15
7.694400e-16
7.339312e-16
5.995308e-16
3.917627e-16
2.284300e-16
7.383678e-17
-6.520780e-17
-2.197173e-16
-3.795613e-16
-5.887539e-16
-7.313034e-16
-7.595376e-16
-1.097308e-15
-1.315491e-15
-1.466481e-15
-1.667839e-15
-1.897210e-15
-2.157014e-15
-2.434163e-15
-2.726593e-15
-3.034180e-15
-3.360134e-15
-3.707497e-15
-4.079710e-15
-4.478545e-15
-4.907272e-15
-5.367714e-15
-5.863056e-15
-6.398795e-15
-6.983539e-15
-7.629454e-15
-8.345771e-15
-9.128920e-15
-9.949068e-15
-1.075243e-14
-1.151980e-14
-1.238383e-14
-1.377167e-14
-1.631476e-14
-2.029171e-14
-2.403138e-14
-2.353881e-14
-1.140520e-14
8.522563e-15
3.302138e-14
-5.570160e-14
-1.885764e-13
-6.358383e-13
4.849331e-13
-2.771731e-12
1.616489e-11
3.525089e-15
-1.339015e-13
-7.831102e-14
-5.877949e-14
-4.273173e-14
-3.296224e-14
-2.520311e-14
-1.892689e-14
-1.432273e-14
-1.125595e-14
-9.242000e-15
-7.837135e-15
-6.767611e-15
-5.904189e-15
-5.190226e-15
-4.595320e-15
-4.096003e-15
-3.672129e-15
-3.307702e-15
-2.990493e-15
-2.711928e-15
-2.465506e-15
-2.246339e-15
-2.050486e-15
-1.874680e-15
-1.716181e-15
-1.572725e-15
-1.442353e-15
-1.323600e-15
-1.214885e-15
-1.115253e-15
-1.023522e-15
-9.389483e-16
-8.607768e-16
-7.882238e-16
-7.208748e-16
-6.577923e-16
-5.990146e-16
-5.437402e-16
-4.923241e-16
-4.445920e-16
-4.005646e-16
-3.596405e-16
-3.197463e-16
-2.778212e-16
-2.307183e-16
-1.822133e-16
-1.375219e-16
-1.500422e-16
-2.034789e-16
-1.121983e-16
-3.675297e-17
-1.794437e-17
-6.511600e-18
-2.111197e-18
1.888970e-18
5.888257e-18
1.757317e-17
3.422706e-17
1.056050e-16
2.018274e-16
1.543529e-16
1.354558e-16
1.795324e-16
2.276549e-16
2.752195e-16
3.172627e-16
3.572362e-16
3.980352e-16
4.418309e-16
4.893018e-16
5.406017e-16
5.952692e-16
6.541972e-16
7.171524e-16
7.851074e-16
8.581235e-16
9.356832e-16
1.016647e-15
1.100664e-15
1.191980e-15
1.302535e-15
1.451124e-15
1.649352e-15
1.866570e-15
1.992246e-15
1.847907e-15
1.352745e-15
8.940358e-16
1.731116e-15
5.553834e-15
1.294751e-14
1.919074e-14
1.240468e-14
-4.818370e-14
-1.107249e-13
-1.029737e-13
3.213459e-13
-5.212793e-13
6.157744e-12
2.372910e-13
1.764322e-13
2.021485e-13
1.631732e-13
1.248446e-13
9.936966e-14
8.167598e-14
6.868507e-14
5.842212e-14
5.012982e-14
4.337806e-14
3.785419e-14
3.328772e-14
2.946079e-14
2.621081e-14
2.342079e-14
2.100647e-14
1.890379e-14
1.706266e-14
1.544218e-14
1.400910e-14
1.273594e-14
1.159998e-14
1.058268e-14
9.668182e-15
8.843358e-15
8.096843e-15
7.419153e-15
6.801996e-15
6.238513e-15
5.722298e-15
5.248361e-15
4.811889e-15
4.409013e-15
4.036237e-15
3.690335e-15
3.368737e-15
3.069210e-15
2.789670e-15
2.528223e-15
2.282898e-15
2.052262e-15
1.834216e-15
1.628152e-15
1.434067e-15
1.254197e-15
1.090708e-15
9.436329e-16
7.916516e-16
6.394259e-16
5.193135e-16
4.016566e-16
2.761204e-16
1.607705e-16
5.457665e-17
-4.848921e-17
-1.543150e-16
-2.689874e-16
-3.942243e-16
-5.126432e-16
-6.314140e-16
-7.821106e-16
-9.349477e-16
-1.081624e-15
-1.243995e-15
-1.423018e-15
-1.616221e-15
-1.821657e-15
-2.038854e-15
-2.268791e-15
-2.513079e-15
-2.773445e-15
-3.052175e-15
-3.350510e-15
-3.670671e-15
-4.014758e-15
-4.385158e-15
-4.785266e-15
-5.219565e-15
-5.694011e-15
-6.214479e-15
-6.783836e-15
-7.396951e-15
-8.042960e-15
-8.717013e-15
-9.457584e-15
-1.038717e-14
-1.170641e-14
-1.352107e-14
-1.550712e-14
-1.644727e-14
-1.457681e-14
-8.509333e-15
-5.846975e-15
-2.577032e-14
-7.823835e-14
-1.451718e-13
-3.947328e-13
-3.989277e-13
8.429841e-13
-3.719299e-13
-4.885718e-13
-3.906686e-13
-3.278640e-13
-2.817029e-13
-2.441187e-13
-2.121376e-13
-1.836544e-13
-1.589663e-13
-1.381797e-13
-1.209144e-13
-1.065073e-13
-9.433567e-14
-8.392853e-14
-7.495422e-14
-6.717084e-14
-6.038902e-14
-5.445308e-14
-4.923327e-14
-4.462221e-14
-4.053090e-14
-3.688614e-14
-3.362703e-14
-3.070246e-14
-2.806905e-14
-2.569021e-14
-2.353461e-14
-2.157540e-14
-1.978953e-14
-1.815688e-14
-1.666040e-14
-1.528501e-14
-1.401762e-14
-1.284681e-14
-1.176268e-14
-1.075619e-14
-9.819990e-15
-8.946767e-15
-8.131227e-15
-7.368415e-15
-6.654049e-15
-5.983446e-15
-5.351082e-15
-4.750787e-15
-4.177778e-15
-3.632186e-15
-3.123913e-15
-2.672440e-15
-2.305958e-15
-1.962426e-15
-1.533252e-15
-1.102232e-15
-7.395951e-16
-4.263510e-16
-1.439444e-16
1.277591e-16
4.090115e-16
7.199007e-16
1.078774e-15
1.506328e-15
1.939374e-15
2.286024e-15
2.648131e-15
3.095213e-15
3.600858e-15
4.144497e-15
4.716029e-15
5.314468e-15
5.944780e-15
6.612995e-15
7.324572e-15
8.084410e-15
8.896586e-15
9.766383e-15
1.069947e-14
1.170219e-14
1.278103e-14
1.394339e-14
1.519864e-14
1.656163e-14
1.805445e-14
1.970591e-14
2.153811e-14
2.353966e-14
2.564044e-14
2.773162e-14
2.980710e-14
3.224331e-14
3.608070e-14
4.267025e-14
5.219515e-14
6.014755e-14
5.726763e-14
2.711650e-14
-1.954455e-14
-3.840802e-14
2.280133e-13
3.499549e-13
1.502811e-12
4.007434e-13
3.662845e-13
3.406844e-13
3.404554e-13
2.928640e-13
2.442057e-13
2.080298e-13
1.793104e-13
1.555222e-13
1.351604e-13
1.178360e-13
1.032239e-13
9.092675e-14
8.051738e-14
7.162650e-14
6.396755e-14
5.732529e-14
5.153440e-14
4.646256e-14
4.200117e-14
3.805973e-14
3.456316e-14
3.144890e-14
2.866474e-14
2.616680e-14
2.391818e-14
2.188737e-14
2.004762e-14
1.837590e-14
1.685235e-14
1.546019e-14
1.418428e-14
1.301199e-14
1.193200e-14
1.093469e-14
1.001126e-14
9.154509e-15
8.357451e-15
7.614756e-15
6.921336e-15
6.272740e-15
5.664865e-15
5.093356e-15
4.554013e-15
4.043247e-15
3.559619e-15
3.105869e-15
2.688947e-15
2.314903e-15
1.967737e-15
1.628045e-15
1.299897e-15
9.741415e-16
6.634605e-16
3.850588e-16
1.304666e-16
-1.156199e-16
-3.695442e-16
-6.460394e-16
-9.547819e-16
-1.280258e-15
-1.608205e-15
-1.947371e-15
-2.293561e-15
-2.665529e-15
-3.079700e-15
-3.531826e-15
-4.013598e-15
-4.522772e-15
-5.060240e-15
-5.629783e-15
-6.235387e-15
-6.881375e-15
-7.572222e-15
-8.312187e-15
-9.106042e-15
-9.958897e-15
-1.087691e-14
-1.186731e-14
-1.294010e-14
-1.410832e-14
-1.538853e-14
-1.679451e-14
-1.832821e-14
-1.997131e-14
-2.169505e-14
-2.351540e-14
-2.559485e-14
-2.833057e-14
-3.220572e-14
-3.725045e-14
-4.180153e-14
-4.235372e-14
-3.337231e-14
-2.215439e-14
-2.257687e-14
-1.108398e-13
-1.958129e-13
-7.766578e-13
2.482902e-14
-1.729147e-12
-9.580518e-14
-1.044569e-13
-7.067528e-14
-5.276400e-14
-4.937741e-14
-4.392354e-14
-3.871538e-14
-3.338992e-14
-2.872121e-14
-2.482511e-14
-2.164090e-14
-1.900845e-14
-1.679462e-14
-1.490691e-14
-1.328449e-14
-1.188388e-14
-1.066939e-14
-9.611314e-15
-8.684280e-15
-7.867605e-15
-7.144572e-15
-6.501414e-15
-5.926969e-15
-5.411969e-15
-4.948461e-15
-4.529989e-15
-4.150976e-15
-3.806368e-15
-3.492171e-15
-3.204903e-15
-2.941460e-15
-2.699174e-15
-2.475959e-15
-2.269565e-15
-2.078330e-15
-1.900703e-15
-1.735310e-15
-1.580993e-15
-1.436907e-15
-1.301929e-15
-1.175449e-15
-1.057204e-15
-9.455639e-16
-8.390850e-16
-7.360961e-16
-6.361641e-16
-5.416113e-16
-4.608080e-16
-4.078005e-16
-3.557703e-16
-2.735668e-16
-1.846538e-16
-1.190445e-16
-6.754945e-17
-2.249107e-17
1.999569e-17
6.473603e-17
1.156504e-16
1.801616e-16
2.680705e-16
3.517750e-16
4.050861e-16
4.569555e-16
5.361581e-16
6.304667e-16
7.299610e-16
8.329441e-16
9.390804e-16
1.050414e-15
1.168310e-15
1.294051e-15
1.428463e-15
1.572100e-15
1.725833e-15
1.890748e-15
2.067976e-15
2.258421e-15
2.463130e-15
2.683190e-15
2.921281e-15
3.182478e-15
3.475127e-15
3.807786e-15
4.178577e-15
4.562609e-15
4.906701e-15
5.167022e-15
5.408809e-15
5.970672e-15
7.423877e-15
1.030499e-14
1.340955e-14
1.430426e-14
2.360815e-15
-1.584334e-14
-5.295516e-14
4.911941e-14
-2.066359e-13
1.114088e-12
-1.618464e-12
-1.175613e-14
2.481926e-14
2.817493e-14
3.065896e-14
2.014735e-14
1.531646e-14
1.204574e-14
1.012326e-14
8.559979e-15
7.233773e-15
6.121719e-15
5.230411e-15
4.528332e-15
3.970614e-15
3.516235e-15
3.135687e-15
2.809923e-15
2.527302e-15
2.280186e-15
2.062926e-15
1.870973e-15
1.700688e-15
1.548866e-15
1.413076e-15
1.290989e-15
1.181025e-15
1.081595e-15
9.913295e-16
9.090546e-16
8.340192e-16
7.652348e-16
7.021186e-16
6.439156e-16
5.902604e-16
5.405836e-16
4.945675e-16
4.517417e-16
4.119657e-16
3.747809e-16
3.400033e-16
3.074831e-16
2.764551e-16
2.472804e-16
2.200233e-16
1.955680e-16
1.742973e-16
1.563515e-16
1.371517e-16
1.076724e-16
8.312982e-17
6.937955e-17
6.305080e-17
4.753783e-17
2.837187e-17
9.854411e-18
-8.736225e-18
-2.725335e-17
-4.639052e-17
-6.243914e-17
-6.901731e-17
-8.191755e-17
-1.058983e-16
-1.356067e-16
-1.555014e-16
-1.729882e-16
-1.942686e-16
-2.184559e-16
-2.456162e-16
-2.746484e-16
-3.055168e-16
-3.380878e-16
-3.727223e-16
-4.097884e-16
-4.493997e-16
-4.918917e-16
-5.374942e-16
-5.867711e-16
-6.402232e-16
-6.988862e-16
-7.637422e-16
-8.343031e-16
-9.082854e-16
-9.815101e-16
-1.052444e-15
-1.131003e-15
-1.250350e-15
-1.461072e-15
-1.790141e-15
-2.120700e-15
-2.146076e-15
-1.251655e-15
3.570683e-16
2.427543e-15
-3.520722e-15
-1.180439e-14
-5.342578e-14
-6.053707e-15
-3.467657e-13
9.344887e-13
-2.061165e-12
-5.396400e-14
1.210890e-14
4.358491e-15
1.150595e-14
4.350324e-15
2.357858e-15
1.273020e-15
1.162543e-15
1.081451e-15
9.400740e-16
7.482691e-16
5.690457e-16
4.306518e-16
3.368703e-16
2.790117e-16
2.459905e-16
2.277273e-16
2.172392e-16
2.098226e-16
2.027429e-16
1.946318e-16
1.852962e-16
1.745802e-16
1.630407e-16
1.512757e-16
1.392324e-16
1.275894e-16
1.165437e-16
1.061169e-16
9.636804e-17
8.738721e-17
7.922270e-17
7.173261e-17
6.495473e-17
5.884195e-17
5.327707e-17
4.824613e-17
4.382382e-17
3.969708e-17
3.590959e-17
3.253910e-17
2.914770e-17
2.602389e-17
2.359533e-17
2.241838e-17
2.275354e-17
2.450174e-17
2.272758e-17
1.142429e-17
6.799791e-18
6.349525e-18
1.400641e-17
1.402799e-17
8.819686e-18
3.205143e-18
-2.896476e-18
-8.484191e-18
-1.378282e-17
-1.434960e-17
-6.682234e-18
-6.625156e-18
-1.092927e-17
-2.210175e-17
-2.466689e-17
-2.279048e-17
-2.245272e-17
-2.342574e-17
-2.584745e-17
-2.891711e-17
-3.228346e-17
-3.579509e-17
-3.953875e-17
-4.356690e-17
-4.793010e-17
-5.285807e-17
-5.818592e-17
-6.429106e-17
-7.104134e-17
-7.950281e-17
-8.908412e-17
-9.923540e-17
-1.072105e-16
-1.091175e-16
-1.051476e-16
-1.053281e-16
-1.369985e-16
-2.343068e-16
-3.997473e-16
-5.064754e-16
-2.952510e-16
7.129496e-16
2.121015e-15
3.540828e-15
-2.637790e-15
-8.608816e-15
-4.421393e-14
5.176220e-15
-2.959085e-13
9.822455e-13
-2.115113e-12
-7.125671e-14
1.784933e-14
9.769531e-16
8.524743e-15
1.839694e-15
4.232061e-17
-9.327586e-16
-9.753628e-16
-9.720115e-16
-9.993348e-16
-1.063437e-15
-1.123316e-15
-1.165250e-15
-1.187915e-15
-1.193454e-15
-1.182651e-15
-1.155652e-15
-1.113334e-15
-1.057914e-15
-9.926804e-16
-9.216764e-16
-8.481348e-16
-7.753469e-16
-7.050233e-16
-6.388693e-16
-5.775653e-16
-5.213345e-16
-4.701051e-16
-4.239433e-16
-3.821727e-16
-3.446623e-16
-3.108569e-16
-2.804921e-16
-2.531005e-16
-2.283342e-16
-2.058648e-16
-1.854972e-16
-1.668415e-16
-1.498258e-16
-1.342689e-16
-1.198952e-16
-1.068891e-16
-9.473436e-17
-8.316929e-17
-7.144605e-17
-5.956298e-17
-4.716416e-17
-3.863995e-17
-3.783793e-17
-3.024282e-17
-2.481021e-17
-1.205933e-17
-4.968772e-18
-2.788108e-18
-7.866825e-19
6.724552e-19
2.670156e-18
4.793274e-18
1.131915e-17
2.419040e-17
2.983442e-17
3.748183e-17
3.864499e-17
4.629929e-17
5.887518e-17
7.063426e-17
8.244705e-17
9.405592e-17
1.060403e-16
1.191816e-16
1.333219e-16
1.487981e-16
1.657609e-16
1.843907e-16
2.046785e-16
2.271150e-16
2.518954e-16
2.788624e-16
3.084387e-16
3.407668e-16
3.771780e-16
4.201013e-16
4.726452e-16
5.354423e-16
6.003516e-16
6.459475e-16
6.444355e-16
5.898424e-16
5.763274e-16
8.018732e-16
1.691323e-15
2.962118e-15
4.378662e-15
-3.868912e-16
-4.258599e-15
-3.693346e-14
5.120692e-15
-2.666197e-13
9.267908e-13
-2.056098e-12
-3.421121e-14
5.840966e-14
2.876601e-14
3.133025e-14
2.215862e-14
1.808693e-14
1.522489e-14
1.348889e-14
1.204105e-14
1.078199e-14
9.672339e-15
8.713525e-15
7.884932e-15
7.159364e-15
6.512133e-15
5.925985e-15
5.389862e-15
4.897772e-15
4.445835e-15
4.031854e-15
3.653889e-15
3.310142e-15
2.998376e-15
2.716515e-15
2.462012e-15
2.232433e-15
2.025409e-15
1.838557e-15
1.669705e-15
1.517152e-15
1.378932e-15
1.253609e-15
1.139692e-15
1.036013e-15
9.414080e-16
8.548959e-16
7.755084e-16
7.026252e-16
6.354002e-16
5.732111e-16
5.156247e-16
4.619545e-16
4.119766e-16
3.654222e-16
3.225254e-16
2.828406e-16
2.468494e-16
2.108783e-16
1.735763e-16
1.458457e-16
1.135933e-16
8.988859e-17
6.541247e-17
3.890435e-17
1.348278e-17
-1.196544e-17
-3.735257e-17
-6.382368e-17
-8.864407e-17
-1.118910e-16
-1.438715e-16
-1.717198e-16
-2.083713e-16
-2.449144e-16
-2.803621e-16
-3.201666e-16
-3.627541e-16
-4.091168e-16
-4.588381e-16
-5.122850e-16
-5.695539e-16
-6.315774e-16
-6.985847e-16
-7.710171e-16
-8.499440e-16
-9.359096e-16
-1.029973e-15
-1.133140e-15
-1.246763e-15
-1.372134e-15
-1.510448e-15
-1.661837e-15
-1.825886e-15
-2.003527e-15
-2.199863e-15
-2.430897e-15
-2.721848e-15
-3.093754e-15
-3.504855e-15
-3.825758e-15
-3.675311e-15
-3.101540e-15
-2.093384e-15
-5.365381e-15
-7.386153e-15
-3.694835e-14
-3.823433e-15
-2.526301e-13
8.067851e-13
-1.940714e-12
-2.125234e-13
-7.658142e-14
-8.493995e-14
-6.435629e-14
-5.979903e-14
-5.399206e-14
-4.869690e-14
-4.353047e-14
-3.904485e-14
-3.521813e-14
-3.195306e-14
-2.911672e-14
-2.661612e-14
-2.438857e-14
-2.239127e-14
-2.059072e-14
-1.895930e-14
-1.747384e-14
-1.611524e-14
-1.486783e-14
-1.371912e-14
-1.265848e-14
-1.167752e-14
-1.076881e-14
-9.926496e-15
-9.145378e-15
-8.420793e-15
-7.748856e-15
-7.125934e-15
-6.548533e-15
-6.013502e-15
-5.517704e-15
-5.058233e-15
-4.632162e-15
-4.236822e-15
-3.869616e-15
-3.528192e-15
-3.210159e-15
-2.913610e-15
-2.636644e-15
-2.377517e-15
-2.134791e-15
-1.906874e-15
-1.692102e-15
-1.489042e-15
-1.297019e-15
-1.115631e-15
-9.491117e-16
-7.998131e-16
-6.568886e-16
-5.213904e-16
-3.888269e-16
-2.693047e-16
-1.599470e-16
-5.488193e-17
4.871851e-17
1.536131e-16
2.626453e-16
3.810795e-16
5.133742e-16
6.485664e-16
7.910287e-16
9.400133e-16
1.105014e-15
1.285963e-15
1.477203e-15
1.679651e-15
1.893712e-15
2.120780e-15
2.362630e-15
2.620713e-15
2.896515e-15
3.191865e-15
3.508618e-15
3.848745e-15
4.214398e-15
4.608001e-15
5.031738e-15
5.488357e-15
5.980747e-15
6.513002e-15
7.090810e-15
7.719085e-15
8.399538e-15
9.124399e-15
9.874524e-15
1.063189e-14
1.141607e-14
1.235505e-14
1.368908e-14
1.576946e-14
1.820531e-14
2.005253e-14
1.631041e-14
1.356887e-14
-1.604723e-14
3.584894e-14
-1.400256e-13
9.057522e-13
-1.728025e-12
1.295277e-13
2.012426e-13
1.407620e-13
1.233029e-13
1.022121e-13
8.806480e-14
7.706863e-14
6.828946e-14
6.085894e-14
5.451520e-14
4.907667e-14
4.439886e-14
4.034440e-14
3.679825e-14
3.366883e-14
3.088520e-14
2.839193e-14
2.614451e-14
2.410680e-14
2.224949e-14
2.054857e-14
1.898474e-14
1.754190e-14
1.620770e-14
1.497135e-14
1.382417e-14
1.275907e-14
1.176944e-14
1.084971e-14
9.994908e-15
9.200276e-15
8.461389e-15
7.774069e-15
7.134407e-15
6.538594e-15
5.983116e-15
5.464670e-15
4.980267e-15
4.527003e-15
4.102348e-15
3.704002e-15
3.329656e-15
2.977421e-15
2.645452e-15
2.332321e-15
2.036946e-15
1.760120e-15
1.500266e-15
1.260283e-15
1.040527e-15
8.237705e-16
6.231277e-16
4.367293e-16
2.596880e-16
8.912479e-17
-7.909203e-17
-2.493773e-16
-4.258849e-16
-6.118627e-16
-8.111471e-16
-1.027550e-15
-1.246925e-15
-1.485175e-15
-1.744374e-15
-2.019853e-15
-2.314235e-15
-2.626262e-15
-2.957074e-15
-3.308085e-15
-3.681024e-15
-4.077881e-15
-4.500965e-15
-4.952507e-15
-5.434919e-15
-5.951292e-15
-6.504405e-15
-7.097586e-15
-7.734177e-15
-8.418256e-15
-9.154146e-15
-9.946701e-15
-1.080063e-14
-1.171882e-14
-1.270178e-14
-1.374793e-14
-1.486277e-14
-1.607318e-14
-1.744131e-14
-1.903827e-14
-2.087625e-14
-2.263279e-14
-2.390276e-14
-2.369293e-14
-2.518618e-14
-2.183330e-14
-5.211996e-14
-3.911222e-14
-2.737413e-13
5.256038e-13
-1.770861e-12
-1.961886e-13
-5.559556e-14
-7.190380e-14
-5.447521e-14
-4.989438e-14
-4.503921e-14
-4.052098e-14
-3.618325e-14
-3.238827e-14
-2.914386e-14
-2.637310e-14
-2.397343e-14
-2.186892e-14
-2.000684e-14
-1.834977e-14
-1.686821e-14
-1.553694e-14
-1.433454e-14
-1.324294e-14
-1.224710e-14
-1.133460e-14
-1.049515e-14
-9.720514e-15
-9.003580e-15
-8.338520e-15
-7.720502e-15
-7.145317e-15
-6.609578e-15
-6.110074e-15
-5.644074e-15
-5.209044e-15
-4.802776e-15
-4.423127e-15
-4.068081e-15
-3.735855e-15
-3.424697e-15
-3.133069e-15
-2.859371e-15
-2.602331e-15
-2.360662e-15
-2.133167e-15
-1.918916e-15
-1.716700e-15
-1.525489e-15
-1.344211e-15
-1.172577e-15
-1.009908e-15
-8.601964e-16
-7.216658e-16
-5.939775e-16
-4.702704e-16
-3.528150e-16
-2.457137e-16
-1.458592e-16
-5.031035e-17
4.463997e-17
1.400684e-16
2.397301e-16
3.458445e-16
4.632038e-16
5.864401e-16
7.136790e-16
8.517967e-16
1.000476e-15
1.162694e-15
1.333723e-15
1.514474e-15
1.705027e-15
1.906530e-15
2.120035e-15
2.346687e-15
2.587411e-15
2.843540e-15
3.116275e-15
3.406873e-15
3.716914e-15
4.047818e-15
4.401170e-15
4.778755e-15
5.182522e-15
5.615511e-15
6.081541e-15
6.584727e-15
7.126620e-15
7.702561e-15
8.299659e-15
8.905048e-15
9.531780e-15
1.027119e-14
1.129704e-14
1.289149e-14
1.469831e-14
1.625186e-14
1.261786e-14
1.455856e-14
-1.319359e-14
3.182020e-14
-9.266482e-14
7.470753e-13
-1.493335e-12
-5.084701e-14
6.823253e-14
2.626829e-14
2.779117e-14
2.084502e-14
1.681020e-14
1.402574e-14
1.215981e-14
1.067614e-14
9.430284e-15
8.367614e-15
7.467100e-15
6.703384e-15
6.050722e-15
5.486674e-15
4.993694e-15
4.559067e-15
4.172933e-15
3.827663e-15
3.516972e-15
3.235851e-15
2.980233e-15
2.746530e-15
2.532224e-15
2.335046e-15
2.153156e-15
1.985003e-15
1.829258e-15
1.684936e-15
1.550979e-15
1.426663e-15
1.311153e-15
1.203764e-15
1.103922e-15
1.010993e-15
9.244502e-16
8.437331e-16
7.684694e-16
6.981447e-16
6.323839e-16
5.708438e-16
5.130678e-16
4.588154e-16
4.078661e-16
3.602003e-16
3.154115e-16
2.744666e-16
2.342643e-16
2.003675e-16
1.626433e-16
1.317830e-16
1.004829e-16
7.026356e-17
4.228617e-17
1.411408e-17
-1.248352e-17
-4.064838e-17
-6.832673e-17
-9.906523e-17
-1.296348e-16
-1.607379e-16
-1.983815e-16
-2.319131e-16
-2.721896e-16
-3.127828e-16
-3.574599e-16
-4.048842e-16
-4.556743e-16
-5.096935e-16
-5.672459e-16
-6.285960e-16
-6.941647e-16
-7.641793e-16
-8.391084e-16
-9.194792e-16
-1.005579e-15
-1.098096e-15
-1.197512e-15
-1.304557e-15
-1.420036e-15
-1.544518e-15
-1.678150e-15
-1.820259e-15
-1.970357e-15
-2.130298e-15
-2.308849e-15
-2.522980e-15
-2.791760e-15
-3.099866e-15
-3.379096e-15
-3.348538e-15
-3.112525e-15
-2.267705e-15
-5.595894e-15
-1.207857e-15
-2.880163e-14
-1.471699e-15
-1.453303e-13
6.170467e-13
-1.547708e-12
-9.315007e-14
3.890022e-14
-8.533177e-16
5.691625e-15
2.091862e-15
5.512844e-16
-3.384917e-16
-6.122441e-16
-7.282495e-16
-7.931227e-16
-8.400464e-16
-8.643905e-16
-8.669622e-16
-8.525028e-16
-8.271877e-16
-7.957203e-16
-7.609473e-16
-7.244464e-16
-6.872021e-16
-6.498101e-16
-6.127011e-16
-5.762142e-16
-5.407179e-16
-5.063118e-16
-4.731137e-16
-4.412599e-16
-4.107680e-16
-3.817534e-16
-3.541624e-16
-3.279866e-16
-3.032366e-16
-2.798953e-16
-2.579080e-16
-2.371941e-16
-2.177222e-16
-1.993989e-16
-1.822000e-16
-1.659793e-16
-1.507289e-16
-1.363525e-16
-1.227950e-16
-1.100833e-16
-9.795539e-17
-8.647339e-17
-7.534714e-17
-6.467986e-17
-5.351804e-17
-4.528319e-17
-3.260297e-17
-3.103070e-17
-2.039055e-17
-1.480444e-17
-1.094638e-17
-5.758230e-18
-2.536569e-18
2.304273e-18
5.454481e-18
1.094162e-17
1.397266e-17
2.016980e-17
3.050921e-17
3.207246e-17
4.480629e-17
5.286027e-17
6.409698e-17
7.465803e-17
8.585262e-17
9.726420e-17
1.093227e-16
1.220183e-16
1.355213e-16
1.498223e-16
1.650314e-16
1.812017e-16