<VTKFile type='UnstructuredGrid' version='0.1' byte_order='BigEndian'> 
<UnstructuredGrid> 
<Piece NumberOfPoints='  1701 ' NumberOfCells='   400 '> 
<Points> 
<DataArray type='Float32' NumberOfComponents='3' Format='ascii'> 
0.000000e+00 0.000000e+00 0.000000e+00 
1.600000e+03 0.000000e+00 0.000000e+00 
3.200000e+03 0.000000e+00 0.000000e+00 
4.800000e+03 0.000000e+00 0.000000e+00 
6.400000e+03 0.000000e+00 0.000000e+00 
8.000000e+03 0.000000e+00 0.000000e+00 
9.600000e+03 0.000000e+00 0.000000e+00 
1.120000e+04 0.000000e+00 0.000000e+00 
1.280000e+04 0.000000e+00 0.000000e+00 
1.440000e+04 0.000000e+00 0.000000e+00 
1.600000e+04 0.000000e+00 0.000000e+00 
1.760000e+04 0.000000e+00 0.000000e+00 
1.920000e+04 0.000000e+00 0.000000e+00 
2.080000e+04 0.000000e+00 0.000000e+00 
2.240000e+04 0.000000e+00 0.000000e+00 
2.400000e+04 0.000000e+00 0.000000e+00 
2.560000e+04 0.000000e+00 0.000000e+00 
2.720000e+04 0.000000e+00 0.000000e+00 
2.880000e+04 0.000000e+00 0.000000e+00 
3.040000e+04 0.000000e+00 0.000000e+00 
3.200000e+04 0.000000e+00 0.000000e+00 
3.360000e+04 0.000000e+00 0.000000e+00 
3.520000e+04 0.000000e+00 0.000000e+00 
3.680000e+04 0.000000e+00 0.000000e+00 
3.840000e+04 0.000000e+00 0.000000e+00 
4.000000e+04 0.000000e+00 0.000000e+00 
4.160000e+04 0.000000e+00 0.000000e+00 
4.320000e+04 0.000000e+00 0.000000e+00 
4.480000e+04 0.000000e+00 0.000000e+00 
4.640000e+04 0.000000e+00 0.000000e+00 
4.800000e+04 0.000000e+00 0.000000e+00 
4.960000e+04 0.000000e+00 0.000000e+00 
5.120000e+04 0.000000e+00 0.000000e+00 
5.280000e+04 0.000000e+00 0.000000e+00 
5.440000e+04 0.000000e+00 0.000000e+00 
5.600000e+04 0.000000e+00 0.000000e+00 
5.760000e+04 0.000000e+00 0.000000e+00 
5.920000e+04 0.000000e+00 0.000000e+00 
6.080000e+04 0.000000e+00 0.000000e+00 
6.240000e+04 0.000000e+00 0.000000e+00 
6.400000e+04 0.000000e+00 0.000000e+00 
6.560000e+04 0.000000e+00 0.000000e+00 
6.720000e+04 0.000000e+00 0.000000e+00 
6.880000e+04 0.000000e+00 0.000000e+00 
7.040000e+04 0.000000e+00 0.000000e+00 
7.200000e+04 0.000000e+00 0.000000e+00 
7.360000e+04 0.000000e+00 0.000000e+00 
7.520000e+04 0.000000e+00 0.000000e+00 
7.680000e+04 0.000000e+00 0.000000e+00 
7.840000e+04 0.000000e+00 0.000000e+00 
8.000000e+04 0.000000e+00 0.000000e+00 
8.160000e+04 0.000000e+00 0.000000e+00 
8.320000e+04 0.000000e+00 0.000000e+00 
8.480000e+04 0.000000e+00 0.000000e+00 
8.640000e+04 0.000000e+00 0.000000e+00 
8.800000e+04 0.000000e+00 0.000000e+00 
8.960000e+04 0.000000e+00 0.000000e+00 
9.120000e+04 0.000000e+00 0.000000e+00 
9.280000e+04 0.000000e+00 0.000000e+00 
9.440000e+04 0.000000e+00 0.000000e+00 
9.600000e+04 0.000000e+00 0.000000e+00 
9.760000e+04 0.000000e+00 0.000000e+00 
9.920000e+04 0.000000e+00 0.000000e+00 
1.008000e+05 0.000000e+00 0.000000e+00 
1.024000e+05 0.000000e+00 0.000000e+00 
1.040000e+05 0.000000e+00 0.000000e+00 
1.056000e+05 0.000000e+00 0.000000e+00 
1.072000e+05 0.000000e+00 0.000000e+00 
1.088000e+05 0.000000e+00 0.000000e+00 
1.104000e+05 0.000000e+00 0.000000e+00 
1.120000e+05 0.000000e+00 0.000000e+00 
1.136000e+05 0.000000e+00 0.000000e+00 
1.152000e+05 0.000000e+00 0.000000e+00 
1.168000e+05 0.000000e+00 0.000000e+00 
1.184000e+05 0.000000e+00 0.000000e+00 
1.200000e+05 0.000000e+00 0.000000e+00 
1.216000e+05 0.000000e+00 0.000000e+00 
1.232000e+05 0.000000e+00 0.000000e+00 
1.248000e+05 0.000000e+00 0.000000e+00 
1.264000e+05 0.000000e+00 0.000000e+00 
1.280000e+05 0.000000e+00 0.000000e+00 
0.000000e+00 1.666485e+03 0.000000e+00 
1.600000e+03 1.666341e+03 0.000000e+00 
3.200000e+03 1.665908e+03 0.000000e+00 
4.800000e+03 1.665186e+03 0.000000e+00 
6.400000e+03 1.664174e+03 0.000000e+00 
8.000000e+03 1.662868e+03 0.000000e+00 
9.600000e+03 1.661267e+03 0.000000e+00 
1.120000e+04 1.659368e+03 0.000000e+00 
1.280000e+04 1.657167e+03 0.000000e+00 
1.440000e+04 1.654663e+03 0.000000e+00 
1.600000e+04 1.651852e+03 0.000000e+00 
1.760000e+04 1.648732e+03 0.000000e+00 
1.920000e+04 1.645301e+03 0.000000e+00 
2.080000e+04 1.641561e+03 0.000000e+00 
2.240000e+04 1.637511e+03 0.000000e+00 
2.400000e+04 1.633155e+03 0.000000e+00 
2.560000e+04 1.628499e+03 0.000000e+00 
2.720000e+04 1.623549e+03 0.000000e+00 
2.880000e+04 1.618317e+03 0.000000e+00 
3.040000e+04 1.612818e+03 0.000000e+00 
3.200000e+04 1.607070e+03 0.000000e+00 
3.360000e+04 1.601095e+03 0.000000e+00 
3.520000e+04 1.594923e+03 0.000000e+00 
3.680000e+04 1.588585e+03 0.000000e+00 
3.840000e+04 1.582118e+03 0.000000e+00 
4.000000e+04 1.575568e+03 0.000000e+00 
4.160000e+04 1.568982e+03 0.000000e+00 
4.320000e+04 1.562413e+03 0.000000e+00 
4.480000e+04 1.555921e+03 0.000000e+00 
4.640000e+04 1.549569e+03 0.000000e+00 
4.800000e+04 1.543422e+03 0.000000e+00 
4.960000e+04 1.537549e+03 0.000000e+00 
5.120000e+04 1.532019e+03 0.000000e+00 
5.280000e+04 1.526902e+03 0.000000e+00 
5.440000e+04 1.522265e+03 0.000000e+00 
5.600000e+04 1.518172e+03 0.000000e+00 
5.760000e+04 1.514680e+03 0.000000e+00 
5.920000e+04 1.511842e+03 0.000000e+00 
6.080000e+04 1.509700e+03 0.000000e+00 
6.240000e+04 1.508288e+03 0.000000e+00 
6.400000e+04 1.507625e+03 0.000000e+00 
6.560000e+04 1.507724e+03 0.000000e+00 
6.720000e+04 1.508582e+03 0.000000e+00 
6.880000e+04 1.510184e+03 0.000000e+00 
7.040000e+04 1.512505e+03 0.000000e+00 
7.200000e+04 1.515509e+03 0.000000e+00 
7.360000e+04 1.519149e+03 0.000000e+00 
7.520000e+04 1.523373e+03 0.000000e+00 
7.680000e+04 1.528119e+03 0.000000e+00 
7.840000e+04 1.533322e+03 0.000000e+00 
8.000000e+04 1.538914e+03 0.000000e+00 
8.160000e+04 1.544825e+03 0.000000e+00 
8.320000e+04 1.550987e+03 0.000000e+00 
8.480000e+04 1.557330e+03 0.000000e+00 
8.640000e+04 1.563790e+03 0.000000e+00 
8.800000e+04 1.570305e+03 0.000000e+00 
8.960000e+04 1.576818e+03 0.000000e+00 
9.120000e+04 1.583277e+03 0.000000e+00 
9.280000e+04 1.589635e+03 0.000000e+00 
9.440000e+04 1.595849e+03 0.000000e+00 
9.600000e+04 1.601884e+03 0.000000e+00 
9.760000e+04 1.607708e+03 0.000000e+00 
9.920000e+04 1.613295e+03 0.000000e+00 
1.008000e+05 1.618624e+03 0.000000e+00 
1.024000e+05 1.623677e+03 0.000000e+00 
1.040000e+05 1.628440e+03 0.000000e+00 
1.056000e+05 1.632904e+03 0.000000e+00 
1.072000e+05 1.637061e+03 0.000000e+00 
1.088000e+05 1.640907e+03 0.000000e+00 
1.104000e+05 1.644437e+03 0.000000e+00 
1.120000e+05 1.647653e+03 0.000000e+00 
1.136000e+05 1.650553e+03 0.000000e+00 
1.152000e+05 1.653139e+03 0.000000e+00 
1.168000e+05 1.655413e+03 0.000000e+00 
1.184000e+05 1.657377e+03 0.000000e+00 
1.200000e+05 1.659033e+03 0.000000e+00 
1.216000e+05 1.660385e+03 0.000000e+00 
1.232000e+05 1.661433e+03 0.000000e+00 
1.248000e+05 1.662181e+03 0.000000e+00 
1.264000e+05 1.662629e+03 0.000000e+00 
1.280000e+05 1.662778e+03 0.000000e+00 
0.000000e+00 3.333270e+03 0.000000e+00 
1.600000e+03 3.332982e+03 0.000000e+00 
3.200000e+03 3.332118e+03 0.000000e+00 
4.800000e+03 3.330676e+03 0.000000e+00 
6.400000e+03 3.328653e+03 0.000000e+00 
8.000000e+03 3.326045e+03 0.000000e+00 
9.600000e+03 3.322846e+03 0.000000e+00 
1.120000e+04 3.319050e+03 0.000000e+00 
1.280000e+04 3.314653e+03 0.000000e+00 
1.440000e+04 3.309647e+03 0.000000e+00 
1.600000e+04 3.304028e+03 0.000000e+00 
1.760000e+04 3.297790e+03 0.000000e+00 
1.920000e+04 3.290931e+03 0.000000e+00 
2.080000e+04 3.283449e+03 0.000000e+00 
2.240000e+04 3.275347e+03 0.000000e+00 
2.400000e+04 3.266631e+03 0.000000e+00 
2.560000e+04 3.257311e+03 0.000000e+00 
2.720000e+04 3.247401e+03 0.000000e+00 
2.880000e+04 3.236923e+03 0.000000e+00 
3.040000e+04 3.225907e+03 0.000000e+00 
3.200000e+04 3.214389e+03 0.000000e+00 
3.360000e+04 3.202413e+03 0.000000e+00 
3.520000e+04 3.190036e+03 0.000000e+00 
3.680000e+04 3.177322e+03 0.000000e+00 
3.840000e+04 3.164348e+03 0.000000e+00 
4.000000e+04 3.151199e+03 0.000000e+00 
4.160000e+04 3.137973e+03 0.000000e+00 
4.320000e+04 3.124779e+03 0.000000e+00 
4.480000e+04 3.111733e+03 0.000000e+00 
4.640000e+04 3.098963e+03 0.000000e+00 
4.800000e+04 3.086602e+03 0.000000e+00 
4.960000e+04 3.074787e+03 0.000000e+00 
5.120000e+04 3.063660e+03 0.000000e+00 
5.280000e+04 3.053360e+03 0.000000e+00 
5.440000e+04 3.044023e+03 0.000000e+00 
5.600000e+04 3.035779e+03 0.000000e+00 
5.760000e+04 3.028746e+03 0.000000e+00 
5.920000e+04 3.023029e+03 0.000000e+00 
6.080000e+04 3.018713e+03 0.000000e+00 
6.240000e+04 3.015866e+03 0.000000e+00 
6.400000e+04 3.014532e+03 0.000000e+00 
6.560000e+04 3.014731e+03 0.000000e+00 
6.720000e+04 3.016459e+03 0.000000e+00 
6.880000e+04 3.019689e+03 0.000000e+00 
7.040000e+04 3.024366e+03 0.000000e+00 
7.200000e+04 3.030419e+03 0.000000e+00 
7.360000e+04 3.037753e+03 0.000000e+00 
7.520000e+04 3.046259e+03 0.000000e+00 
7.680000e+04 3.055815e+03 0.000000e+00 
7.840000e+04 3.066288e+03 0.000000e+00 
8.000000e+04 3.077541e+03 0.000000e+00 
8.160000e+04 3.089432e+03 0.000000e+00 
8.320000e+04 3.101822e+03 0.000000e+00 
8.480000e+04 3.114572e+03 0.000000e+00 
8.640000e+04 3.127553e+03 0.000000e+00 
8.800000e+04 3.140640e+03 0.000000e+00 
8.960000e+04 3.153717e+03 0.000000e+00 
9.120000e+04 3.166681e+03 0.000000e+00 
9.280000e+04 3.179437e+03 0.000000e+00 
9.440000e+04 3.191901e+03 0.000000e+00 
9.600000e+04 3.204001e+03 0.000000e+00 
9.760000e+04 3.215675e+03 0.000000e+00 
9.920000e+04 3.226870e+03 0.000000e+00 
1.008000e+05 3.237545e+03 0.000000e+00 
1.024000e+05 3.247663e+03 0.000000e+00 
1.040000e+05 3.257200e+03 0.000000e+00 
1.056000e+05 3.266134e+03 0.000000e+00 
1.072000e+05 3.274452e+03 0.000000e+00 
1.088000e+05 3.282145e+03 0.000000e+00 
1.104000e+05 3.289207e+03 0.000000e+00 
1.120000e+05 3.295636e+03 0.000000e+00 
1.136000e+05 3.301434e+03 0.000000e+00 
1.152000e+05 3.306604e+03 0.000000e+00 
1.168000e+05 3.311149e+03 0.000000e+00 
1.184000e+05 3.315074e+03 0.000000e+00 
1.200000e+05 3.318384e+03 0.000000e+00 
1.216000e+05 3.321085e+03 0.000000e+00 
1.232000e+05 3.323180e+03 0.000000e+00 
1.248000e+05 3.324674e+03 0.000000e+00 
1.264000e+05 3.325569e+03 0.000000e+00 
1.280000e+05 3.325867e+03 0.000000e+00 
0.000000e+00 5.000654e+03 0.000000e+00 
[...]
<CellData Scalars='scalars'>
<DataArray type='Float32' Name='volume' Format='ascii'> 
1.066524e+07 
1.065785e+07 
1.064303e+07 
1.062064e+07 
1.059054e+07 
1.055260e+07 
1.050671e+07 
1.045290e+07 
1.039138e+07 
1.032264e+07 
1.024751e+07 
1.016729e+07 
1.008380e+07 
9.999371e+06 
9.916900e+06 
9.839686e+06 
9.771265e+06 
9.715139e+06 
9.674439e+06 
9.651577e+06 
9.647955e+06 
9.663777e+06 
9.698024e+06 
9.748589e+06 
9.812537e+06 
9.886448e+06 
9.966754e+06 
1.005004e+07 
1.013327e+07 
1.021389e+07 
1.028990e+07 
1.035985e+07 
1.042272e+07 
1.047791e+07 
1.052512e+07 
1.056425e+07 
1.059535e+07 
1.061850e+07 
1.063386e+07 
1.064150e+07 
1.067292e+07 
1.066561e+07 
1.065092e+07 
1.062871e+07 
1.059879e+07 
1.056098e+07 
1.051511e+07 
1.046115e+07 
1.039920e+07 
1.032966e+07 
1.025329e+07 
1.017131e+07 
1.008549e+07 
9.998223e+06 
9.912478e+06 
9.831752e+06 
9.759857e+06 
9.700625e+06 
9.657531e+06 
9.633280e+06 
9.629454e+06 
9.646284e+06 
9.682621e+06 
9.736094e+06 
9.803436e+06 
9.880884e+06 
9.964574e+06 
1.005087e+07 
1.013661e+07 
1.021918e+07 
1.029662e+07 
1.036751e+07 
1.043093e+07 
1.048638e+07 
1.053364e+07 
1.057269e+07 
1.060364e+07 
1.062664e+07 
1.064187e+07 
1.064945e+07 
1.068823e+07 
1.068108e+07 
1.066668e+07 
1.064486e+07 
1.061535e+07 
1.057787e+07 
1.053214e+07 
1.047795e+07 
1.041524e+07 
1.034421e+07 
1.026544e+07 
1.017997e+07 
1.008951e+07 
9.996460e+06 
9.903993e+06 
9.815985e+06 
9.736819e+06 
9.671040e+06 
9.622870e+06 
9.595663e+06 
9.591402e+06 
9.610380e+06 
9.651152e+06 
9.710769e+06 
9.785231e+06 
9.870037e+06 
9.960697e+06 
1.005313e+07 
1.014391e+07 
1.023037e+07 
1.031058e+07 
1.038326e+07 
1.044770e+07 
1.050356e+07 
1.055082e+07 
1.058964e+07 
1.062024e+07 
1.064290e+07 
1.065785e+07 
1.066528e+07 
1.071102e+07 
1.070413e+07 
1.069024e+07 
1.066909e+07 
1.064032e+07 
1.060351e+07 
1.055818e+07 
1.050389e+07 
1.044030e+07 
1.036731e+07 
1.028514e+07 
1.019460e+07 
1.009717e+07 
9.995253e+06 
9.892273e+06 
9.792675e+06 
9.701758e+06 
9.625260e+06 
9.568698e+06 
9.536571e+06 
9.531583e+06 
9.554139e+06 
9.602261e+06 
9.671970e+06 
9.757991e+06 
9.854572e+06 
9.956200e+06 
1.005811e+07 
1.015652e+07 
1.024870e+07 
1.033285e+07 
1.040798e+07 
1.047366e+07 
1.052990e+07 
1.057696e+07 
1.061524e+07 
1.064518e+07 
1.066722e+07 
1.068170e+07 
1.068888e+07 
1.074105e+07 
1.073458e+07 
1.072146e+07 
1.070136e+07 
1.067381e+07 
1.063820e+07 
1.059379e+07 
1.053983e+07 
1.047559e+07 
1.040049e+07 
1.031429e+07 
1.021731e+07 
1.011067e+07 
9.996634e+06 
9.878849e+06 
9.762506e+06 
9.654225e+06 
9.561585e+06 
9.492199e+06 
9.452479e+06 
9.446363e+06 
9.474447e+06 
9.533842e+06 
9.618829e+06 
9.722044e+06 
9.835768e+06 
9.952979e+06 
1.006797e+07 
1.017659e+07 
1.027613e+07 
1.036511e+07 
1.044297e+07 
1.050979e+07 
1.056604e+07 
1.061242e+07 
1.064966e+07 
1.067847e+07 
1.069950e+07 
1.071324e+07 
1.072002e+07 
1.077796e+07 
1.077207e+07 
1.076008e+07 
1.074156e+07 
1.071591e+07 
1.068227e+07 
1.063964e+07 
1.058685e+07 
1.052266e+07 
1.044588e+07 
1.035555e+07 
1.025122e+07 
1.013338e+07 
1.000386e+07 
9.866378e+06 
9.726949e+06 
9.593978e+06 
9.477771e+06 
9.389273e+06 
9.338082e+06 
9.330251e+06 
9.366704e+06 
9.442983e+06 
9.550440e+06 
9.678332e+06 
9.815946e+06 
9.954145e+06 
1.008610e+07 
1.020735e+07 
1.031549e+07 
1.040963e+07 
1.048997e+07 
1.055731e+07 
1.061278e+07 
1.065763e+07 
1.069303e+07 
1.072004e+07 
1.073952e+07 
1.075214e+07 
1.075834e+07 
1.082119e+07 
1.081610e+07 
1.080568e+07 
1.078942e+07 
1.076654e+07 
1.073599e+07 
1.069641e+07 
1.064618e+07 
1.058343e+07 
1.050616e+07 
1.041241e+07 
1.030065e+07 
1.017020e+07 
1.002198e+07 
9.859333e+06 
9.688972e+06 
9.521506e+06 
9.371189e+06 
9.254246e+06 
9.185658e+06 
9.175199e+06 
9.224384e+06 
9.325971e+06 
9.466284e+06 
9.629083e+06 
9.799177e+06 
9.964637e+06 
1.011749e+07 
1.025333e+07 
1.037055e+07 
1.046937e+07 
1.055112e+07 
1.061764e+07 
1.067095e+07 
1.071296e+07 
1.074539e+07 
1.076965e+07 
1.078689e+07 
1.079792e+07 
1.080330e+07 
1.086994e+07 
1.086592e+07 
1.085761e+07 
1.084442e+07 
1.082545e+07 
1.079943e+07 
1.076467e+07 
1.071904e+07 
1.065997e+07 
1.058446e+07 
1.048929e+07 
1.037130e+07 
1.022802e+07 
1.005859e+07 
9.865088e+06 
9.654269e+06 
9.439106e+06 
9.239326e+06 
9.079542e+06 
8.984074e+06 
8.969504e+06 
9.038454e+06 
9.178531e+06 
9.367144e+06 
9.579031e+06 
9.792444e+06 
9.992107e+06 
1.016933e+07 
1.032066e+07 
1.044615e+07 
1.054786e+07 
1.062882e+07 
1.069226e+07 
1.074129e+07 
1.077862e+07 
1.080654e+07 
1.082685e+07 
1.084095e+07 
1.084983e+07 
1.085411e+07 
1.092315e+07 
1.092050e+07 
1.091489e+07 
1.090573e+07 
1.089201e+07 
1.087231e+07 
1.084465e+07 
1.080643e+07 
1.075431e+07 
1.068420e+07 
1.059131e+07 
1.047036e+07 
1.031618e+07 
1.012484e+07 
9.895517e+06 
9.633365e+06 
9.352985e+06 
9.081102e+06 
8.855551e+06 
8.717325e+06 
8.696102e+06 
8.796710e+06 
8.996689e+06 
9.257051e+06 
9.537596e+06 
9.807443e+06 
1.004810e+07 
1.025164e+07 
1.041724e+07 
1.054807e+07 
1.064905e+07 
1.072551e+07 
1.078246e+07 
1.082425e+07 
1.085446e+07 
1.087593e+07 
1.089084e+07 
1.090076e+07 
1.090681e+07 
1.090966e+07 
1.097943e+07 
1.097844e+07 
1.097620e+07 
1.097209e+07 
1.096514e+07 
1.095384e+07 
1.093604e+07 
1.090878e+07 
1.086806e+07 
1.080866e+07 
1.072403e+07 
1.060632e+07 
1.044669e+07 
1.023642e+07 
9.969140e+06 
9.645021e+06 
9.277353e+06 
8.900127e+06 
8.571313e+06 
8.362439e+06 
8.329962e+06 
8.483419e+06 
8.779324e+06 
9.147290e+06 
9.522635e+06 
9.863166e+06 
1.014942e+07 
1.037767e+07 
1.055269e+07 
1.068277e+07 
1.077688e+07 
1.084328e+07 
1.088900e+07 
1.091970e+07 
1.093977e+07 
1.095251e+07 
1.096033e+07 
1.096493e+07 
1.096743e+07 
1.096851e+07 
</DataArray>
</CellData>
<PointData Scalars='scalars'>
<DataArray type='Float32' NumberOfComponents='3' Name='velocity (cm/year)' Format='ascii'> 
0.000000e+00 5.000000e-01 0.000000e+00 
0.000000e+00 5.000000e-01 0.000000e+00 
0.000000e+00 5.000000e-01 0.000000e+00 
0.000000e+00 5.000000e-01 0.000000e+00 
0.000000e+00 5.000000e-01 0.000000e+00 
0.000000e+00 5.000000e-01 0.000000e+00 
0.000000e+00 5.000000e-01 0.000000e+00 
0.000000e+00 5.000000e-01 0.000000e+00 
0.000000e+00 5.000000e-01 0.000000e+00 
0.000000e+00 5.000000e-01 0.000000e+00 
0.000000e+00 5.000000e-01 0.000000e+00 
0.000000e+00 5.000000e-01 0.000000e+00 
0.000000e+00 5.000000e-01 0.000000e+00 
0.000000e+00 5.000000e-01 0.000000e+00 
0.000000e+00 5.000000e-01 0.000000e+00 
0.000000e+00 5.000000e-01 0.000000e+00 
0.000000e+00 5.000000e-01 0.000000e+00 
0.000000e+00 5.000000e-01 0.000000e+00 
0.000000e+00 5.000000e-01 0.000000e+00 
0.000000e+00 5.000000e-01 0.000000e+00 
0.000000e+00 5.000000e-01 0.000000e+00 
0.000000e+00 5.000000e-01 0.000000e+00 
0.000000e+00 5.000000e-01 0.000000e+00 
0.000000e+00 5.000000e-01 0.000000e+00 
0.000000e+00 5.000000e-01 0.000000e+00 
0.000000e+00 5.000000e-01 0.000000e+00 
0.000000e+00 5.000000e-01 0.000000e+00 
0.000000e+00 5.000000e-01 0.000000e+00 
0.000000e+00 5.000000e-01 0.000000e+00 
0.000000e+00 5.000000e-01 0.000000e+00 
0.000000e+00 5.000000e-01 0.000000e+00 
0.000000e+00 5.000000e-01 0.000000e+00 
0.000000e+00 5.000000e-01 0.000000e+00 
0.000000e+00 5.000000e-01 0.000000e+00 
0.000000e+00 5.000000e-01 0.000000e+00 
0.000000e+00 5.000000e-01 0.000000e+00 
0.000000e+00 5.000000e-01 0.000000e+00 
0.000000e+00 5.000000e-01 0.000000e+00 
0.000000e+00 5.000000e-01 0.000000e+00 
0.000000e+00 5.000000e-01 0.000000e+00 
0.000000e+00 5.000000e-01 0.000000e+00 
2.000000e+00 5.000000e-01 0.000000e+00 
2.000000e+00 5.000000e-01 0.000000e+00 
2.000000e+00 5.000000e-01 0.000000e+00 
2.000000e+00 5.000000e-01 0.000000e+00 
2.000000e+00 5.000000e-01 0.000000e+00 
2.000000e+00 5.000000e-01 0.000000e+00 
2.000000e+00 5.000000e-01 0.000000e+00 
2.000000e+00 5.000000e-01 0.000000e+00 
2.000000e+00 5.000000e-01 0.000000e+00 
2.000000e+00 5.000000e-01 0.000000e+00 
2.000000e+00 5.000000e-01 0.000000e+00 
2.000000e+00 5.000000e-01 0.000000e+00 
2.000000e+00 5.000000e-01 0.000000e+00 
2.000000e+00 5.000000e-01 0.000000e+00 
2.000000e+00 5.000000e-01 0.000000e+00 
2.000000e+00 5.000000e-01 0.000000e+00 
2.000000e+00 5.000000e-01 0.000000e+00 
2.000000e+00 5.000000e-01 0.000000e+00 
2.000000e+00 5.000000e-01 0.000000e+00 
2.000000e+00 5.000000e-01 0.000000e+00 
2.000000e+00 5.000000e-01 0.000000e+00 
2.000000e+00 5.000000e-01 0.000000e+00 
2.000000e+00 5.000000e-01 0.000000e+00 
2.000000e+00 5.000000e-01 0.000000e+00 
2.000000e+00 5.000000e-01 0.000000e+00 
2.000000e+00 5.000000e-01 0.000000e+00 
2.000000e+00 5.000000e-01 0.000000e+00 
2.000000e+00 5.000000e-01 0.000000e+00 
2.000000e+00 5.000000e-01 0.000000e+00 
2.000000e+00 5.000000e-01 0.000000e+00 
2.000000e+00 5.000000e-01 0.000000e+00 
2.000000e+00 5.000000e-01 0.000000e+00 
2.000000e+00 5.000000e-01 0.000000e+00 
2.000000e+00 5.000000e-01 0.000000e+00 
2.000000e+00 5.000000e-01 0.000000e+00 
2.000000e+00 5.000000e-01 0.000000e+00 
2.000000e+00 5.000000e-01 0.000000e+00 
2.000000e+00 5.000000e-01 0.000000e+00 
2.000000e+00 5.000000e-01 0.000000e+00 
2.000000e+00 5.000000e-01 0.000000e+00 
0.000000e+00 4.987942e-01 0.000000e+00 
2.306111e-03 4.987937e-01 0.000000e+00 
4.613900e-03 4.987921e-01 0.000000e+00 
6.925310e-03 4.987893e-01 0.000000e+00 
9.242007e-03 4.987853e-01 0.000000e+00 
1.156646e-02 4.987800e-01 0.000000e+00 
1.390061e-02 4.987731e-01 0.000000e+00 
1.624778e-02 4.987646e-01 0.000000e+00 
1.861056e-02 4.987539e-01 0.000000e+00 
2.099357e-02 4.987411e-01 0.000000e+00 
2.340060e-02 4.987250e-01 0.000000e+00 
2.583816e-02 4.987061e-01 0.000000e+00 
2.831202e-02 4.986824e-01 0.000000e+00 
3.083150e-02 4.986549e-01 0.000000e+00 
3.340556e-02 4.986203e-01 0.000000e+00 
3.604754e-02 4.985799e-01 0.000000e+00 
3.877120e-02 4.985294e-01 0.000000e+00 
4.159592e-02 4.984710e-01 0.000000e+00 
4.454344e-02 4.983970e-01 0.000000e+00 
4.764113e-02 4.983105e-01 0.000000e+00 
5.092127e-02 4.982020e-01 0.000000e+00 
5.442556e-02 4.980796e-01 0.000000e+00 
5.820894e-02 4.979203e-01 0.000000e+00 
6.232579e-02 4.977248e-01 0.000000e+00 
6.684660e-02 4.974860e-01 0.000000e+00 
7.187776e-02 4.972433e-01 0.000000e+00 
7.758926e-02 4.968869e-01 0.000000e+00 
8.406297e-02 4.963468e-01 0.000000e+00 
9.139367e-02 4.957651e-01 0.000000e+00 
1.000280e-01 4.954669e-01 0.000000e+00 
1.108370e-01 4.945693e-01 0.000000e+00 
1.235193e-01 4.921065e-01 0.000000e+00 
1.373585e-01 4.902003e-01 0.000000e+00 
1.559404e-01 4.922130e-01 0.000000e+00 
1.869960e-01 4.890065e-01 0.000000e+00 
2.232091e-01 4.692296e-01 0.000000e+00 
2.514417e-01 4.572231e-01 0.000000e+00 
3.134516e-01 4.891470e-01 0.000000e+00 
5.081110e-01 4.550062e-01 0.000000e+00 
7.277342e-01 2.163217e-01 0.000000e+00 
9.119488e-01 -9.307251e-02 0.000000e+00 
1.090000e+00 5.487019e-02 0.000000e+00 
1.432397e+00 3.865902e-01 0.000000e+00 
1.598123e+00 4.425959e-01 0.000000e+00 
1.689592e+00 4.570772e-01 0.000000e+00 
1.754784e+00 4.718844e-01 0.000000e+00 
1.797196e+00 4.831392e-01 0.000000e+00 
1.827509e+00 4.877507e-01 0.000000e+00 
1.850104e+00 4.895293e-01 0.000000e+00 
1.868079e+00 4.917833e-01 0.000000e+00 
1.882393e+00 4.935798e-01 0.000000e+00 
1.894106e+00 4.946936e-01 0.000000e+00 
1.903816e+00 4.953898e-01 0.000000e+00 
1.912079e+00 4.960606e-01 0.000000e+00 
1.919177e+00 4.965871e-01 0.000000e+00 
1.925368e+00 4.970010e-01 0.000000e+00 
1.930819e+00 4.973081e-01 0.000000e+00 
1.935689e+00 4.975799e-01 0.000000e+00 
1.940084e+00 4.977935e-01 0.000000e+00 
1.944097e+00 4.979745e-01 0.000000e+00 
1.947794e+00 4.981156e-01 0.000000e+00 
1.951237e+00 4.982382e-01 0.000000e+00 
1.954471e+00 4.983350e-01 0.000000e+00 
1.957534e+00 4.984184e-01 0.000000e+00 
1.960459e+00 4.984842e-01 0.000000e+00 
1.963268e+00 4.985411e-01 0.000000e+00 
1.965985e+00 4.985862e-01 0.000000e+00 
1.968626e+00 4.986249e-01 0.000000e+00 
1.971205e+00 4.986557e-01 0.000000e+00 
1.973732e+00 4.986820e-01 0.000000e+00 
1.976219e+00 4.987030e-01 0.000000e+00 
1.978671e+00 4.987208e-01 0.000000e+00 
1.981097e+00 4.987349e-01 0.000000e+00 
1.983500e+00 4.987468e-01 0.000000e+00 
1.985886e+00 4.987561e-01 0.000000e+00 
1.988257e+00 4.987636e-01 0.000000e+00 
1.990618e+00 4.987694e-01 0.000000e+00 
1.992970e+00 4.987737e-01 0.000000e+00 
1.995317e+00 4.987767e-01 0.000000e+00 
1.997659e+00 4.987785e-01 0.000000e+00 
2.000000e+00 4.987791e-01 0.000000e+00 
0.000000e+00 4.952157e-01 0.000000e+00 
4.555805e-03 4.952134e-01 0.000000e+00 
9.115397e-03 4.952066e-01 0.000000e+00 
1.368280e-02 4.951950e-01 0.000000e+00 
1.826207e-02 4.951782e-01 0.000000e+00 
2.285798e-02 4.951559e-01 0.000000e+00 
2.747542e-02 4.951271e-01 0.000000e+00 
3.212055e-02 4.950914e-01 0.000000e+00 
3.679984e-02 4.950470e-01 0.000000e+00 
4.152165e-02 4.949933e-01 0.000000e+00 
4.629511e-02 4.949276e-01 0.000000e+00 
5.113194e-02 4.948489e-01 0.000000e+00 
5.604546e-02 4.947533e-01 0.000000e+00 
6.105239e-02 4.946391e-01 0.000000e+00 
6.617243e-02 4.945005e-01 0.000000e+00 
7.142973e-02 4.943353e-01 0.000000e+00 
7.685382e-02 4.941348e-01 0.000000e+00 
8.247958e-02 4.938958e-01 0.000000e+00 
8.835084e-02 4.936052e-01 0.000000e+00 
9.451861e-02 4.932582e-01 0.000000e+00 
1.010500e-01 4.928364e-01 0.000000e+00 
1.080190e-01 4.923326e-01 0.000000e+00 
1.155230e-01 4.917151e-01 0.000000e+00 
1.236735e-01 4.909716e-01 0.000000e+00 
1.326339e-01 4.900649e-01 0.000000e+00 
1.425672e-01 4.889757e-01 0.000000e+00 
1.536890e-01 4.875970e-01 0.000000e+00 
1.662668e-01 4.858808e-01 0.000000e+00 
1.807967e-01 4.837941e-01 0.000000e+00 
1.977006e-01 4.812628e-01 0.000000e+00 
2.174230e-01 4.776630e-01 0.000000e+00 
2.406859e-01 4.726751e-01 0.000000e+00 
2.697445e-01 4.669360e-01 0.000000e+00 
3.064375e-01 4.599804e-01 0.000000e+00 
3.513516e-01 4.461431e-01 0.000000e+00 
4.054125e-01 4.219206e-01 0.000000e+00 
4.828835e-01 3.983802e-01 0.000000e+00 
6.015621e-01 3.666025e-01 0.000000e+00 
7.521069e-01 2.704335e-01 0.000000e+00 
9.069912e-01 2.991003e-02 0.000000e+00 
9.235901e-01 -1.329677e-01 0.000000e+00 
1.063313e+00 -5.962132e-02 0.000000e+00 
1.137493e+00 1.319165e-01 0.000000e+00 
1.305237e+00 2.965320e-01 0.000000e+00 
1.441370e+00 3.661418e-01 0.000000e+00 
1.546468e+00 4.089238e-01 0.000000e+00 
1.615644e+00 4.348243e-01 0.000000e+00 
1.667199e+00 4.511854e-01 0.000000e+00 
1.708814e+00 4.616580e-01 0.000000e+00 
1.742538e+00 4.692528e-01 0.000000e+00 
1.769260e+00 4.748331e-01 0.000000e+00 
1.791381e+00 4.789949e-01 0.000000e+00 
1.810105e+00 4.821027e-01 0.000000e+00 
1.826148e+00 4.845726e-01 0.000000e+00 
1.839951e+00 4.865210e-01 0.000000e+00 
1.852050e+00 4.880944e-01 0.000000e+00 
1.862770e+00 4.893494e-01 0.000000e+00 
1.872383e+00 4.903846e-01 0.000000e+00 
1.881075e+00 4.912253e-01 0.000000e+00 
1.889030e+00 4.919234e-01 0.000000e+00 
1.896375e+00 4.924932e-01 0.000000e+00 
1.903224e+00 4.929690e-01 0.000000e+00 
1.909661e+00 4.933593e-01 0.000000e+00 
1.915763e+00 4.936859e-01 0.000000e+00 
1.921587e+00 4.939541e-01 0.000000e+00 
1.927183e+00 4.941787e-01 0.000000e+00 
1.932591e+00 4.943634e-01 0.000000e+00 
1.937845e+00 4.945179e-01 0.000000e+00 
1.942972e+00 4.946450e-01 0.000000e+00 
1.947995e+00 4.947512e-01 0.000000e+00 
1.952931e+00 4.948384e-01 0.000000e+00 
1.957797e+00 4.949109e-01 0.000000e+00 
1.962606e+00 4.949700e-01 0.000000e+00 
1.967367e+00 4.950187e-01 0.000000e+00 
1.972091e+00 4.950578e-01 0.000000e+00 
1.976785e+00 4.950893e-01 0.000000e+00 
1.981454e+00 4.951135e-01 0.000000e+00 
1.986106e+00 4.951318e-01 0.000000e+00 
1.990744e+00 4.951443e-01 0.000000e+00 
1.995374e+00 4.951518e-01 0.000000e+00 
2.000000e+00 4.951542e-01 0.000000e+00 
0.000000e+00 4.893232e-01 0.000000e+00 
6.742470e-03 4.893179e-01 0.000000e+00 
1.349103e-02 4.893018e-01 0.000000e+00 
2.025206e-02 4.892746e-01 0.000000e+00 
2.703210e-02 4.892354e-01 0.000000e+00 
3.383854e-02 4.891832e-01 0.000000e+00 
4.067919e-02 4.891162e-01 0.000000e+00 
4.756336e-02 4.890329e-01 0.000000e+00 
5.450121e-02 4.889304e-01 0.000000e+00 
6.150512e-02 4.888061e-01 0.000000e+00 
6.858909e-02 4.886554e-01 0.000000e+00 
7.577018e-02 4.884748e-01 0.000000e+00 
8.306840e-02 4.882572e-01 0.000000e+00 
9.050775e-02 4.879973e-01 0.000000e+00 
9.811733e-02 4.876848e-01 0.000000e+00 
1.059314e-01 4.873118e-01 0.000000e+00 
1.139927e-01 4.868634e-01 0.000000e+00 
1.223504e-01 4.863281e-01 0.000000e+00 
1.310672e-01 4.856838e-01 0.000000e+00 
1.402144e-01 4.849140e-01 0.000000e+00 
1.498858e-01 4.839857e-01 0.000000e+00 
1.601833e-01 4.828729e-01 0.000000e+00 
1.712445e-01 4.815272e-01 0.000000e+00 
1.832225e-01 4.799117e-01 0.000000e+00 
1.963328e-01 4.779456e-01 0.000000e+00 
2.107909e-01 4.755538e-01 0.000000e+00 
2.269042e-01 4.726195e-01 0.000000e+00 
2.450382e-01 4.690507e-01 0.000000e+00 
2.657684e-01 4.645904e-01 0.000000e+00 
2.895574e-01 4.589018e-01 0.000000e+00 
3.170959e-01 4.516416e-01 0.000000e+00 
3.494805e-01 4.425802e-01 0.000000e+00 
3.888175e-01 4.305359e-01 0.000000e+00 
4.359802e-01 4.131930e-01 0.000000e+00 
4.919235e-01 3.889881e-01 0.000000e+00 
5.603124e-01 3.576195e-01 0.000000e+00 
6.511141e-01 3.120398e-01 0.000000e+00 
7.611443e-01 2.330085e-01 0.000000e+00 
8.735667e-01 1.090944e-01 0.000000e+00 
9.545363e-01 -3.323207e-02 0.000000e+00 
9.925931e-01 -1.276394e-01 0.000000e+00 
1.015686e+00 -1.038009e-01 0.000000e+00 
1.074769e+00 1.382985e-02 0.000000e+00 
1.163646e+00 1.537369e-01 0.000000e+00 
1.280730e+00 2.642187e-01 0.000000e+00 
1.384969e+00 3.279703e-01 0.000000e+00 
1.465754e+00 3.693749e-01 0.000000e+00 
1.530278e+00 3.987148e-01 0.000000e+00 
1.583596e+00 4.199669e-01 0.000000e+00 
1.627982e+00 4.349164e-01 0.000000e+00 
1.664462e+00 4.458882e-01 0.000000e+00 
1.695205e+00 4.543905e-01 0.000000e+00 
1.721463e+00 4.610061e-01 0.000000e+00 
1.744194e+00 4.662001e-01 0.000000e+00 
1.763972e+00 4.703227e-01 0.000000e+00 
1.781434e+00 4.736749e-01 0.000000e+00 
1.796993e+00 4.763951e-01 0.000000e+00 
1.811017e+00 4.786283e-01 0.000000e+00 
1.823758e+00 4.804580e-01 0.000000e+00 
1.835461e+00 4.819767e-01 0.000000e+00 
1.846298e+00 4.832298e-01 0.000000e+00 
1.856427e+00 4.842739e-01 0.000000e+00 
1.865965e+00 4.851382e-01 0.000000e+00 
1.875018e+00 4.858604e-01 0.000000e+00 
1.883666e+00 4.864594e-01 0.000000e+00 
1.891982e+00 4.869603e-01 0.000000e+00 
1.900020e+00 4.873760e-01 0.000000e+00 
1.907829e+00 4.877237e-01 0.000000e+00 
1.915448e+00 4.880122e-01 0.000000e+00 
1.922909e+00 4.882532e-01 0.000000e+00 
1.930241e+00 4.884527e-01 0.000000e+00 
1.937464e+00 4.886186e-01 0.000000e+00 
1.944600e+00 4.887552e-01 0.000000e+00 
1.951662e+00 4.888675e-01 0.000000e+00 
1.958665e+00 4.889584e-01 0.000000e+00 
1.965621e+00 4.890314e-01 0.000000e+00 
1.972539e+00 4.890881e-01 0.000000e+00 
1.979428e+00 4.891307e-01 0.000000e+00 
1.986297e+00 4.891602e-01 0.000000e+00 
1.993152e+00 4.891776e-01 0.000000e+00 
2.000000e+00 4.891833e-01 0.000000e+00 
0.000000e+00 4.811847e-01 0.000000e+00 
8.858874e-03 4.811750e-01 0.000000e+00 
1.772623e-02 4.811455e-01 0.000000e+00 
2.661085e-02 4.810956e-01 0.000000e+00 
3.552183e-02 4.810238e-01 0.000000e+00 
4.446914e-02 4.809284e-01 0.000000e+00 
5.346357e-02 4.808065e-01 0.000000e+00 
6.251738e-02 4.806551e-01 0.000000e+00 
7.164435e-02 4.804695e-01 0.000000e+00 
8.086044e-02 4.802450e-01 0.000000e+00 
9.018428e-02 4.799744e-01 0.000000e+00 
9.963749e-02 4.796506e-01 0.000000e+00 
1.092461e-01 4.792627e-01 0.000000e+00 
1.190402e-01 4.788006e-01 0.000000e+00 
1.290568e-01 4.782483e-01 0.000000e+00 
1.393384e-01 4.775907e-01 0.000000e+00 
1.499386e-01 4.768049e-01 0.000000e+00 
1.609175e-01 4.758689e-01 0.000000e+00 
1.723530e-01 4.747494e-01 0.000000e+00 
1.843310e-01 4.734143e-01 0.000000e+00 
1.969650e-01 4.718146e-01 0.000000e+00 
2.103775e-01 4.699020e-01 0.000000e+00 
2.247358e-01 4.676046e-01 0.000000e+00 
2.402164e-01 4.648488e-01 0.000000e+00 
2.570641e-01 4.615205e-01 0.000000e+00 
2.755339e-01 4.574969e-01 0.000000e+00 
2.959975e-01 4.526051e-01 0.000000e+00 
3.188315e-01 4.466429e-01 0.000000e+00 
3.445841e-01 4.392771e-01 0.000000e+00 
3.737976e-01 4.300903e-01 0.000000e+00 