<VTKFile type='UnstructuredGrid' version='0.1' byte_order='BigEndian'> 
<UnstructuredGrid> 
<Piece NumberOfPoints='  4225 ' NumberOfCells='  4096 '> 
<Points> 
<DataArray type='Float32' NumberOfComponents='3' Format='ascii'> 
0.000000e+00 0.000000e+00 0.000000e+00 
1.562500e-02 0.000000e+00 0.000000e+00 
3.125000e-02 0.000000e+00 0.000000e+00 
4.687500e-02 0.000000e+00 0.000000e+00 
6.250000e-02 0.000000e+00 0.000000e+00 
7.812500e-02 0.000000e+00 0.000000e+00 
9.375000e-02 0.000000e+00 0.000000e+00 
1.093750e-01 0.000000e+00 0.000000e+00 
1.250000e-01 0.000000e+00 0.000000e+00 
1.406250e-01 0.000000e+00 0.000000e+00 
1.562500e-01 0.000000e+00 0.000000e+00 
1.718750e-01 0.000000e+00 0.000000e+00 
1.875000e-01 0.000000e+00 0.000000e+00 
2.031250e-01 0.000000e+00 0.000000e+00 
2.187500e-01 0.000000e+00 0.000000e+00 
2.343750e-01 0.000000e+00 0.000000e+00 
2.500000e-01 0.000000e+00 0.000000e+00 
2.656250e-01 0.000000e+00 0.000000e+00 
2.812500e-01 0.000000e+00 0.000000e+00 
2.968750e-01 0.000000e+00 0.000000e+00 
3.125000e-01 0.000000e+00 0.000000e+00 
3.281250e-01 0.000000e+00 0.000000e+00 
3.437500e-01 0.000000e+00 0.000000e+00 
3.593750e-01 0.000000e+00 0.000000e+00 
3.750000e-01 0.000000e+00 0.000000e+00 
3.906250e-01 0.000000e+00 0.000000e+00 
4.062500e-01 0.000000e+00 0.000000e+00 
4.218750e-01 0.000000e+00 0.000000e+00 
4.375000e-01 0.000000e+00 0.000000e+00 
4.531250e-01 0.000000e+00 0.000000e+00 
4.687500e-01 0.000000e+00 0.000000e+00 
4.843750e-01 0.000000e+00 0.000000e+00 
5.000000e-01 0.000000e+00 0.000000e+00 
5.156250e-01 0.000000e+00 0.000000e+00 
5.312500e-01 0.000000e+00 0.000000e+00 
5.468750e-01 0.000000e+00 0.000000e+00 
5.625000e-01 0.000000e+00 0.000000e+00 
5.781250e-01 0.000000e+00 0.000000e+00 
5.937500e-01 0.000000e+00 0.000000e+00 
6.093750e-01 0.000000e+00 0.000000e+00 
6.250000e-01 0.000000e+00 0.000000e+00 
6.406250e-01 0.000000e+00 0.000000e+00 
6.562500e-01 0.000000e+00 0.000000e+00 
6.718750e-01 0.000000e+00 0.000000e+00 
6.875000e-01 0.000000e+00 0.000000e+00 
7.031250e-01 0.000000e+00 0.000000e+00 
7.187500e-01 0.000000e+00 0.000000e+00 
7.343750e-01 0.000000e+00 0.000000e+00 
7.500000e-01 0.000000e+00 0.000000e+00 
7.656250e-01 0.000000e+00 0.000000e+00 
7.812500e-01 0.000000e+00 0.000000e+00 
7.968750e-01 0.000000e+00 0.000000e+00 
8.125000e-01 0.000000e+00 0.000000e+00 
8.281250e-01 0.000000e+00 0.000000e+00 
8.437500e-01 0.000000e+00 0.000000e+00 
8.593750e-01 0.000000e+00 0.000000e+00 
8.750000e-01 0.000000e+00 0.000000e+00 
8.906250e-01 0.000000e+00 0.000000e+00 
9.062500e-01 0.000000e+00 0.000000e+00 
9.218750e-01 0.000000e+00 0.000000e+00 
9.375000e-01 0.000000e+00 0.000000e+00 
9.531250e-01 0.000000e+00 0.000000e+00 
9.687500e-01 0.000000e+00 0.000000e+00 
9.843750e-01 0.000000e+00 0.000000e+00 
1.000000e+00 0.000000e+00 0.000000e+00 
0.000000e+00 1.562500e-02 0.000000e+00 
1.562500e-02 1.562500e-02 0.000000e+00 
3.125000e-02 1.562500e-02 0.000000e+00 
4.687500e-02 1.562500e-02 0.000000e+00 
6.250000e-02 1.562500e-02 0.000000e+00 
7.812500e-02 1.562500e-02 0.000000e+00 
9.375000e-02 1.562500e-02 0.000000e+00 
1.093750e-01 1.562500e-02 0.000000e+00 
1.250000e-01 1.562500e-02 0.000000e+00 
1.406250e-01 1.562500e-02 0.000000e+00 
1.562500e-01 1.562500e-02 0.000000e+00 
1.718750e-01 1.562500e-02 0.000000e+00 
1.875000e-01 1.562500e-02 0.000000e+00 
2.031250e-01 1.562500e-02 0.000000e+00 
2.187500e-01 1.562500e-02 0.000000e+00 
2.343750e-01 1.562500e-02 0.000000e+00 
2.500000e-01 1.562500e-02 0.000000e+00 
2.656250e-01 1.562500e-02 0.000000e+00 
2.812500e-01 1.562500e-02 0.000000e+00 
2.968750e-01 1.562500e-02 0.000000e+00 
3.125000e-01 1.562500e-02 0.000000e+00 
3.281250e-01 1.562500e-02 0.000000e+00 
3.437500e-01 1.562500e-02 0.000000e+00 
3.593750e-01 1.562500e-02 0.000000e+00 
3.750000e-01 1.562500e-02 0.000000e+00 
3.906250e-01 1.562500e-02 0.000000e+00 
4.062500e-01 1.562500e-02 0.000000e+00 
4.218750e-01 1.562500e-02 0.000000e+00 
4.375000e-01 1.562500e-02 0.000000e+00 
4.531250e-01 1.562500e-02 0.000000e+00 
4.687500e-01 1.562500e-02 0.000000e+00 
4.843750e-01 1.562500e-02 0.000000e+00 
5.000000e-01 1.562500e-02 0.000000e+00 
5.156250e-01 1.562500e-02 0.000000e+00 
5.312500e-01 1.562500e-02 0.000000e+00 
5.468750e-01 1.562500e-02 0.000000e+00 
5.625000e-01 1.562500e-02 0.000000e+00 
5.781250e-01 1.562500e-02 0.000000e+00 
5.937500e-01 1.562500e-02 0.000000e+00 
6.093750e-01 1.562500e-02 0.000000e+00 
6.250000e-01 1.562500e-02 0.000000e+00 
6.406250e-01 1.562500e-02 0.000000e+00 
6.562500e-01 1.562500e-02 0.000000e+00 
6.718750e-01 1.562500e-02 0.000000e+00 
6.875000e-01 1.562500e-02 0.000000e+00 
7.031250e-01 1.562500e-02 0.000000e+00 
7.187500e-01 1.562500e-02 0.000000e+00 
7.343750e-01 1.562500e-02 0.000000e+00 
7.500000e-01 1.562500e-02 0.000000e+00 
7.656250e-01 1.562500e-02 0.000000e+00 
7.812500e-01 1.562500e-02 0.000000e+00 
7.968750e-01 1.562500e-02 0.000000e+00 
8.125000e-01 1.562500e-02 0.000000e+00 
8.281250e-01 1.562500e-02 0.000000e+00 
8.437500e-01 1.562500e-02 0.000000e+00 
8.593750e-01 1.562500e-02 0.000000e+00 
8.750000e-01 1.562500e-02 0.000000e+00 
8.906250e-01 1.562500e-02 0.000000e+00 
9.062500e-01 1.562500e-02 0.000000e+00 
9.218750e-01 1.562500e-02 0.000000e+00 
9.375000e-01 1.562500e-02 0.000000e+00 
9.531250e-01 1.562500e-02 0.000000e+00 
9.687500e-01 1.562500e-02 0.000000e+00 
9.843750e-01 1.562500e-02 0.000000e+00 
1.000000e+00 1.562500e-02 0.000000e+00 
0.000000e+00 3.125000e-02 0.000000e+00 
1.562500e-02 3.125000e-02 0.000000e+00 
3.125000e-02 3.125000e-02 0.000000e+00 
4.687500e-02 3.125000e-02 0.000000e+00 
6.250000e-02 3.125000e-02 0.000000e+00 
7.812500e-02 3.125000e-02 0.000000e+00 
9.375000e-02 3.125000e-02 0.000000e+00 
1.093750e-01 3.125000e-02 0.000000e+00 
1.250000e-01 3.125000e-02 0.000000e+00 
1.406250e-01 3.125000e-02 0.000000e+00 
1.562500e-01 3.125000e-02 0.000000e+00 
1.718750e-01 3.125000e-02 0.000000e+00 
1.875000e-01 3.125000e-02 0.000000e+00 
2.031250e-01 3.125000e-02 0.000000e+00 
2.187500e-01 3.125000e-02 0.000000e+00 
2.343750e-01 3.125000e-02 0.000000e+00 
2.500000e-01 3.125000e-02 0.000000e+00 
2.656250e-01 3.125000e-02 0.000000e+00 
2.812500e-01 3.125000e-02 0.000000e+00 
2.968750e-01 3.125000e-02 0.000000e+00 
3.125000e-01 3.125000e-02 0.000000e+00 
3.281250e-01 3.125000e-02 0.000000e+00 
3.437500e-01 3.125000e-02 0.000000e+00 
3.593750e-01 3.125000e-02 0.000000e+00 
3.750000e-01 3.125000e-02 0.000000e+00 
3.906250e-01 3.125000e-02 0.000000e+00 
4.062500e-01 3.125000e-02 0.000000e+00 
4.218750e-01 3.125000e-02 0.000000e+00 
4.375000e-01 3.125000e-02 0.000000e+00 
4.531250e-01 3.125000e-02 0.000000e+00 
4.687500e-01 3.125000e-02 0.000000e+00 
4.843750e-01 3.125000e-02 0.000000e+00 
5.000000e-01 3.125000e-02 0.000000e+00 
5.156250e-01 3.125000e-02 0.000000e+00 
5.312500e-01 3.125000e-02 0.000000e+00 
5.468750e-01 3.125000e-02 0.000000e+00 
5.625000e-01 3.125000e-02 0.000000e+00 
5.781250e-01 3.125000e-02 0.000000e+00 
5.937500e-01 3.125000e-02 0.000000e+00 
6.093750e-01 3.125000e-02 0.000000e+00 
6.250000e-01 3.125000e-02 0.000000e+00 
6.406250e-01 3.125000e-02 0.000000e+00 
6.562500e-01 3.125000e-02 0.000000e+00 
6.718750e-01 3.125000e-02 0.000000e+00 
6.875000e-01 3.125000e-02 0.000000e+00 
7.031250e-01 3.125000e-02 0.000000e+00 
7.187500e-01 3.125000e-02 0.000000e+00 
7.343750e-01 3.125000e-02 0.000000e+00 
7.500000e-01 3.125000e-02 0.000000e+00 
7.656250e-01 3.125000e-02 0.000000e+00 
7.812500e-01 3.125000e-02 0.000000e+00 
7.968750e-01 3.125000e-02 0.000000e+00 
8.125000e-01 3.125000e-02 0.000000e+00 
8.281250e-01 3.125000e-02 0.000000e+00 
8.437500e-01 3.125000e-02 0.000000e+00 
8.593750e-01 3.125000e-02 0.000000e+00 
8.750000e-01 3.125000e-02 0.000000e+00 
8.906250e-01 3.125000e-02 0.000000e+00 
9.062500e-01 3.125000e-02 0.000000e+00 
9.218750e-01 3.125000e-02 0.000000e+00 
9.375000e-01 3.125000e-02 0.000000e+00 
9.531250e-01 3.125000e-02 0.000000e+00 
9.687500e-01 3.125000e-02 0.000000e+00 
9.843750e-01 3.125000e-02 0.000000e+00 
1.000000e+00 3.125000e-02 0.000000e+00 
0.000000e+00 4.687500e-02 0.000000e+00 
1.562500e-02 4.687500e-02 0.000000e+00 
3.125000e-02 4.687500e-02 0.000000e+00 
4.687500e-02 4.687500e-02 0.000000e+00 
6.250000e-02 4.687500e-02 0.000000e+00 
7.812500e-02 4.687500e-02 0.000000e+00 
9.375000e-02 4.687500e-02 0.000000e+00 
1.093750e-01 4.687500e-02 0.000000e+00 
1.250000e-01 4.687500e-02 0.000000e+00 
1.406250e-01 4.687500e-02 0.000000e+00 
1.562500e-01 4.687500e-02 0.000000e+00 
1.718750e-01 4.687500e-02 0.000000e+00 
1.875000e-01 4.687500e-02 0.000000e+00 
2.031250e-01 4.687500e-02 0.000000e+00 
2.187500e-01 4.687500e-02 0.000000e+00 
2.343750e-01 4.687500e-02 0.000000e+00 
2.500000e-01 4.687500e-02 0.000000e+00 
2.656250e-01 4.687500e-02 0.000000e+00 
2.812500e-01 4.687500e-02 0.000000e+00 
2.968750e-01 4.687500e-02 0.000000e+00 
3.125000e-01 4.687500e-02 0.000000e+00 
3.281250e-01 4.687500e-02 0.000000e+00 
3.437500e-01 4.687500e-02 0.000000e+00 
3.593750e-01 4.687500e-02 0.000000e+00 
3.750000e-01 4.687500e-02 0.000000e+00 
3.906250e-01 4.687500e-02 0.000000e+00 
4.062500e-01 4.687500e-02 0.000000e+00 
4.218750e-01 4.687500e-02 0.000000e+00 
4.375000e-01 4.687500e-02 0.000000e+00 
4.531250e-01 4.687500e-02 0.000000e+00 
4.687500e-01 4.687500e-02 0.000000e+00 
4.843750e-01 4.687500e-02 0.000000e+00 
5.000000e-01 4.687500e-02 0.000000e+00 
5.156250e-01 4.687500e-02 0.000000e+00 
5.312500e-01 4.687500e-02 0.000000e+00 
5.468750e-01 4.687500e-02 0.000000e+00 
5.625000e-01 4.687500e-02 0.000000e+00 
5.781250e-01 4.687500e-02 0.000000e+00 
5.937500e-01 4.687500e-02 0.000000e+00 
6.093750e-01 4.687500e-02 0.000000e+00 
6.250000e-01 4.687500e-02 0.000000e+00 
6.406250e-01 4.687500e-02 0.000000e+00 
6.562500e-01 4.687500e-02 0.000000e+00 
6.718750e-01 4.687500e-02 0.000000e+00 
6.875000e-01 4.687500e-02 0.000000e+00 
7.031250e-01 4.687500e-02 0.000000e+00 
7.187500e-01 4.687500e-02 0.000000e+00 
7.343750e-01 4.687500e-02 0.000000e+00 
7.500000e-01 4.687500e-02 0.000000e+00 
[...]
<CellData Scalars='scalars'>
<DataArray type='Float32' Name='exx' Format='ascii'> 
9.668464e-04
9.575351e-04
9.390023e-04
9.114264e-04
8.750729e-04
8.302919e-04
7.775149e-04
7.172499e-04
6.500774e-04
5.766443e-04
4.976578e-04
4.138786e-04
3.261136e-04
2.352078e-04
1.420369e-04
4.749812e-05
-4.749812e-05
-1.420369e-04
-2.352078e-04
-3.261136e-04
-4.138786e-04
-4.976578e-04
-5.766443e-04
-6.500774e-04
-7.172499e-04
-7.775149e-04
-8.302919e-04
-8.750729e-04
-9.114264e-04
-9.390023e-04
-9.575351e-04
-9.668464e-04
-9.668464e-04
-9.575351e-04
-9.390023e-04
-9.114264e-04
-8.750729e-04
-8.302919e-04
-7.775149e-04
-7.172499e-04
-6.500774e-04
-5.766443e-04
-4.976578e-04
-4.138786e-04
-3.261136e-04
-2.352078e-04
-1.420369e-04
-4.749812e-05
4.749812e-05
1.420369e-04
2.352078e-04
3.261136e-04
4.138786e-04
4.976578e-04
5.766443e-04
6.500774e-04
7.172499e-04
7.775149e-04
8.302919e-04
8.750729e-04
9.114264e-04
9.390023e-04
9.575351e-04
9.668464e-04
9.726476e-04
9.632805e-04
9.446365e-04
9.168951e-04
8.803234e-04
8.352738e-04
7.821801e-04
7.215535e-04
6.539780e-04
5.801043e-04
5.006439e-04
4.163620e-04
3.280703e-04
2.366191e-04
1.428892e-04
4.778311e-05
-4.778311e-05
-1.428892e-04
-2.366191e-04
-3.280703e-04
-4.163620e-04
-5.006439e-04
-5.801043e-04
-6.539780e-04
-7.215535e-04
-7.821801e-04
-8.352738e-04
-8.803234e-04
-9.168951e-04
-9.446365e-04
-9.632805e-04
-9.726476e-04
-9.726476e-04
-9.632805e-04
-9.446365e-04
-9.168951e-04
-8.803234e-04
-8.352738e-04
-7.821801e-04
-7.215535e-04
-6.539780e-04
-5.801043e-04
-5.006439e-04
-4.163620e-04
-3.280703e-04
-2.366191e-04
-1.428892e-04
-4.778311e-05
4.778311e-05
1.428892e-04
2.366191e-04
3.280703e-04
4.163620e-04
5.006439e-04
5.801043e-04
6.539780e-04
7.215535e-04
7.821801e-04
8.352738e-04
8.803234e-04
9.168951e-04
9.446365e-04
9.632805e-04
9.726476e-04
9.842719e-04
9.747929e-04
9.559260e-04
9.278530e-04
8.908443e-04
8.452563e-04
7.915281e-04
7.301769e-04
6.617938e-04
5.870372e-04
5.066272e-04
4.213380e-04
3.319911e-04
2.394470e-04
1.445969e-04
4.835418e-05
-4.835418e-05
-1.445969e-04
-2.394470e-04
-3.319911e-04
-4.213380e-04
-5.066272e-04
-5.870372e-04
-6.617938e-04
-7.301769e-04
-7.915281e-04
-8.452563e-04
-8.908443e-04
-9.278530e-04
-9.559260e-04
-9.747929e-04
-9.842719e-04
-9.842719e-04
-9.747929e-04
-9.559260e-04
-9.278530e-04
-8.908443e-04
-8.452563e-04
-7.915281e-04
-7.301769e-04
-6.617938e-04
-5.870372e-04
-5.066272e-04
-4.213380e-04
-3.319911e-04
-2.394470e-04
-1.445969e-04
-4.835418e-05
4.835418e-05
1.445969e-04
2.394470e-04
3.319911e-04
4.213380e-04
5.066272e-04
5.870372e-04
6.617938e-04
7.301769e-04
7.915281e-04
8.452563e-04
8.908443e-04
9.278530e-04
9.559260e-04
9.747929e-04
9.842719e-04
1.001763e-03
9.921153e-04
9.729131e-04
9.443413e-04
9.066750e-04
8.602768e-04
8.055938e-04
7.431524e-04
6.735541e-04
5.974691e-04
5.156301e-04
4.288253e-04
3.378907e-04
2.437021e-04
1.471664e-04
4.921345e-05
-4.921345e-05
-1.471664e-04
-2.437021e-04
-3.378907e-04
-4.288253e-04
-5.156301e-04
-5.974691e-04
-6.735541e-04
-7.431524e-04
-8.055938e-04
-8.602768e-04
-9.066750e-04
-9.443413e-04
-9.729131e-04
-9.921153e-04
-1.001763e-03
-1.001763e-03
-9.921153e-04
-9.729131e-04
-9.443413e-04
-9.066750e-04
-8.602768e-04
-8.055938e-04
-7.431524e-04
-6.735541e-04
-5.974691e-04
-5.156301e-04
-4.288253e-04
-3.378907e-04
-2.437021e-04
-1.471664e-04
-4.921345e-05
4.921345e-05
1.471664e-04
2.437021e-04
3.378907e-04
4.288253e-04
5.156301e-04
5.974691e-04
6.735541e-04
7.431524e-04
8.055938e-04
8.602768e-04
9.066750e-04
9.443413e-04
9.729131e-04
9.921153e-04
1.001763e-03
1.025185e-03
1.015312e-03
9.956610e-04
9.664211e-04
9.278741e-04
8.803911e-04
8.244295e-04
7.605282e-04
6.893026e-04
6.114386e-04
5.276861e-04
4.388518e-04
3.457910e-04
2.494001e-04
1.506073e-04
5.036412e-05
-5.036412e-05
-1.506073e-04
-2.494001e-04
-3.457910e-04
-4.388518e-04
-5.276861e-04
-6.114386e-04
-6.893026e-04
-7.605282e-04
-8.244295e-04
-8.803911e-04
-9.278741e-04
-9.664211e-04
-9.956610e-04
-1.015312e-03
-1.025185e-03
-1.025185e-03
-1.015312e-03
-9.956610e-04
-9.664211e-04
-9.278741e-04
-8.803911e-04
-8.244295e-04
-7.605282e-04
-6.893026e-04
-6.114386e-04
-5.276861e-04
-4.388518e-04
-3.457910e-04
-2.494001e-04
-1.506073e-04
-5.036412e-05
5.036412e-05
1.506073e-04
2.494001e-04
3.457910e-04
4.388518e-04
5.276861e-04
6.114386e-04
6.893026e-04
7.605282e-04
8.244295e-04
8.803911e-04
9.278741e-04
9.664211e-04
9.956610e-04
1.015312e-03
1.025185e-03
1.054625e-03
1.044469e-03
1.024253e-03
9.941736e-04
9.545196e-04
9.056731e-04
8.481045e-04
7.823681e-04
7.090971e-04
6.289971e-04
5.428396e-04
4.514542e-04
3.557210e-04
2.565621e-04
1.549323e-04
5.181041e-05
-5.181041e-05
-1.549323e-04
-2.565621e-04
-3.557210e-04
-4.514542e-04
-5.428396e-04
-6.289971e-04
-7.090971e-04
-7.823681e-04
-8.481045e-04
-9.056731e-04
-9.545196e-04
-9.941736e-04
-1.024253e-03
-1.044469e-03
-1.054625e-03
-1.054625e-03
-1.044469e-03
-1.024253e-03
-9.941736e-04
-9.545196e-04
-9.056731e-04
-8.481045e-04
-7.823681e-04
-7.090971e-04
-6.289971e-04
-5.428396e-04
-4.514542e-04
-3.557210e-04
-2.565621e-04
-1.549323e-04
-5.181041e-05
5.181041e-05
1.549323e-04
2.565621e-04
3.557210e-04
4.514542e-04
5.428396e-04
6.289971e-04
7.090971e-04
7.823681e-04
8.481045e-04
9.056731e-04
9.545196e-04
9.941736e-04
1.024253e-03
1.044469e-03
1.054625e-03
1.090189e-03
1.079690e-03
1.058793e-03
1.027699e-03
9.867081e-04
9.362143e-04
8.767043e-04
8.087512e-04
7.330094e-04
6.502083e-04
5.611453e-04
4.666782e-04
3.677167e-04
2.652139e-04
1.601569e-04
5.355757e-05
-5.355757e-05
-1.601569e-04
-2.652139e-04
-3.677167e-04
-4.666782e-04
-5.611453e-04
-6.502083e-04
-7.330094e-04
-8.087512e-04
-8.767043e-04
-9.362143e-04
-9.867081e-04
-1.027699e-03
-1.058793e-03
-1.079690e-03
-1.090189e-03
-1.090189e-03
-1.079690e-03
-1.058793e-03
-1.027699e-03
-9.867081e-04
-9.362143e-04
-8.767043e-04
-8.087512e-04
-7.330094e-04
-6.502083e-04
-5.611453e-04
-4.666782e-04
-3.677167e-04
-2.652139e-04
-1.601569e-04
-5.355757e-05
5.355757e-05
1.601569e-04
2.652139e-04
3.677167e-04
4.666782e-04
5.611453e-04
6.502083e-04
7.330094e-04
8.087512e-04
8.767043e-04
9.362143e-04
9.867081e-04
1.027699e-03
1.058793e-03
1.079690e-03
1.090189e-03
1.132004e-03
1.121102e-03
1.099404e-03
1.067117e-03
1.024554e-03
9.721234e-04
9.103308e-04
8.397713e-04
7.611244e-04
6.751474e-04
5.826683e-04
4.845779e-04
3.818207e-04
2.753863e-04
1.662998e-04
5.561180e-05
-5.561180e-05
-1.662998e-04
-2.753863e-04
-3.818207e-04
-4.845779e-04
-5.826683e-04
-6.751474e-04
-7.611244e-04
-8.397713e-04
-9.103308e-04
-9.721234e-04
-1.024554e-03
-1.067117e-03
-1.099404e-03
-1.121102e-03
-1.132004e-03
-1.132004e-03
-1.121102e-03
-1.099404e-03
-1.067117e-03
-1.024554e-03
-9.721234e-04
-9.103308e-04
-8.397713e-04
-7.611244e-04
-6.751474e-04
-5.826683e-04
-4.845779e-04
-3.818207e-04
-2.753863e-04
-1.662998e-04
-5.561180e-05
5.561180e-05
1.662998e-04
2.753863e-04
3.818207e-04
4.845779e-04
5.826683e-04
6.751474e-04
7.611244e-04
8.397713e-04
9.103308e-04
9.721234e-04
1.024554e-03
1.067117e-03
1.099404e-03
1.121102e-03
1.132004e-03
1.180215e-03
1.168849e-03
1.146226e-03
1.112565e-03
1.068189e-03
1.013525e-03
9.491010e-04
8.755364e-04
7.935399e-04
7.039012e-04
6.074836e-04
5.052156e-04
3.980820e-04
2.871147e-04
1.733824e-04
5.798025e-05
-5.798025e-05
-1.733824e-04
-2.871147e-04
-3.980820e-04
-5.052156e-04
-6.074836e-04
-7.039012e-04
-7.935399e-04
-8.755364e-04
-9.491010e-04
-1.013525e-03
-1.068189e-03
-1.112565e-03
-1.146226e-03
-1.168849e-03
-1.180215e-03
-1.180215e-03
-1.168849e-03
-1.146226e-03
-1.112565e-03
-1.068189e-03
-1.013525e-03
-9.491010e-04
-8.755364e-04
-7.935399e-04
-7.039012e-04
-6.074836e-04
-5.052156e-04
-3.980820e-04
-2.871147e-04
-1.733824e-04
-5.798025e-05
5.798025e-05
1.733824e-04
2.871147e-04
3.980820e-04
5.052156e-04
6.074836e-04
7.039012e-04
7.935399e-04
8.755364e-04
9.491010e-04
1.013525e-03
1.068189e-03
1.112565e-03
1.146226e-03
1.168849e-03
1.180215e-03
1.234986e-03
1.223092e-03
1.199419e-03
1.164196e-03
1.117760e-03
1.060560e-03
9.931460e-04
9.161675e-04
8.303658e-04
7.365673e-04
6.356752e-04
5.286612e-04
4.165559e-04
3.004389e-04
1.814286e-04
6.067095e-05
-6.067095e-05
-1.814286e-04
-3.004389e-04
-4.165559e-04
-5.286612e-04
-6.356752e-04
-7.365673e-04
-8.303658e-04
-9.161675e-04
-9.931460e-04
-1.060560e-03
-1.117760e-03
-1.164196e-03
-1.199419e-03
-1.223092e-03
-1.234986e-03
-1.234986e-03
-1.223092e-03
-1.199419e-03
-1.164196e-03
-1.117760e-03
-1.060560e-03
-9.931460e-04
-9.161675e-04
-8.303658e-04
-7.365673e-04
-6.356752e-04
-5.286612e-04
-4.165559e-04
-3.004389e-04
-1.814286e-04
-6.067095e-05
6.067095e-05
1.814286e-04
3.004389e-04
4.165559e-04
5.286612e-04
6.356752e-04
7.365673e-04
8.303658e-04
9.161675e-04
9.931460e-04
1.060560e-03
1.117760e-03
1.164196e-03
1.199419e-03
1.223092e-03
1.234986e-03
1.296495e-03
1.284009e-03
1.259158e-03
1.222180e-03
1.173431e-03
1.113382e-03
1.042611e-03
9.617982e-04
8.717231e-04
7.732528e-04
6.673356e-04
5.549917e-04
4.373029e-04
3.154026e-04
1.904648e-04
6.369273e-05
-6.369273e-05
-1.904648e-04
-3.154026e-04
-4.373029e-04
-5.549917e-04
-6.673356e-04
-7.732528e-04
-8.717231e-04
-9.617982e-04
-1.042611e-03
-1.113382e-03
-1.173431e-03
-1.222180e-03
-1.259158e-03
-1.284009e-03
-1.296495e-03
-1.296495e-03
-1.284009e-03
-1.259158e-03
-1.222180e-03
-1.173431e-03
-1.113382e-03
-1.042611e-03
-9.617982e-04
-8.717231e-04
-7.732528e-04
-6.673356e-04
-5.549917e-04
-4.373029e-04
-3.154026e-04
-1.904648e-04
-6.369273e-05
6.369273e-05
1.904648e-04
3.154026e-04
4.373029e-04
5.549917e-04
6.673356e-04
7.732528e-04
8.717231e-04
9.617982e-04
1.042611e-03
1.113382e-03
1.173431e-03
1.222180e-03
1.259158e-03
1.284009e-03
1.296495e-03
1.364939e-03
1.351794e-03
1.325630e-03
1.286700e-03
1.235378e-03
1.172159e-03
1.097652e-03
1.012573e-03
9.177426e-04
8.140739e-04
7.025652e-04
5.842905e-04
4.603887e-04
3.320531e-04
2.005197e-04
6.705516e-05
-6.705516e-05
-2.005197e-04
-3.320531e-04
-4.603887e-04
-5.842905e-04
-7.025652e-04
-8.140739e-04
-9.177426e-04
-1.012573e-03
-1.097652e-03
-1.172159e-03
-1.235378e-03
-1.286700e-03
-1.325630e-03
-1.351794e-03
-1.364939e-03
-1.364939e-03
-1.351794e-03
-1.325630e-03
-1.286700e-03
-1.235378e-03
-1.172159e-03
-1.097652e-03
-1.012573e-03
-9.177426e-04
-8.140739e-04
-7.025652e-04
-5.842905e-04
-4.603887e-04
-3.320531e-04
-2.005197e-04
-6.705516e-05
6.705516e-05
2.005197e-04
3.320531e-04
4.603887e-04
5.842905e-04
7.025652e-04
8.140739e-04
9.177426e-04
1.012573e-03
1.097652e-03
1.172159e-03
1.235378e-03
1.286700e-03
1.325630e-03
1.351794e-03
1.364939e-03
1.440525e-03
1.426652e-03
1.399039e-03
1.357953e-03
1.303789e-03
1.237069e-03
1.158436e-03
1.068646e-03
9.685640e-04
8.591545e-04
7.414709e-04
6.166465e-04
4.858835e-04
3.504411e-04
2.116238e-04
7.076844e-05
-7.076844e-05
-2.116238e-04
-3.504411e-04
-4.858835e-04
-6.166465e-04
-7.414709e-04
-8.591545e-04
-9.685640e-04
-1.068646e-03
-1.158436e-03
-1.237069e-03
-1.303789e-03
-1.357953e-03
-1.399039e-03
-1.426652e-03
-1.440525e-03
-1.440525e-03
-1.426652e-03
-1.399039e-03
-1.357953e-03
-1.303789e-03
-1.237069e-03
-1.158436e-03
-1.068646e-03
-9.685640e-04
-8.591545e-04
-7.414709e-04
-6.166465e-04
-4.858835e-04
-3.504411e-04
-2.116238e-04
-7.076844e-05
7.076844e-05
2.116238e-04
3.504411e-04
4.858835e-04
6.166465e-04
7.414709e-04
8.591545e-04
9.685640e-04
1.068646e-03
1.158436e-03
1.237069e-03
1.303789e-03
1.357953e-03
1.399039e-03
1.426652e-03
1.440525e-03
1.523471e-03
1.508799e-03
1.479596e-03
1.436145e-03
1.378862e-03
1.308300e-03
1.225139e-03
1.130179e-03
1.024334e-03
9.086248e-04
7.841649e-04
6.521531e-04
5.138607e-04
3.706196e-04
2.238091e-04
7.484331e-05
-7.484331e-05
-2.238091e-04
-3.706196e-04
-5.138607e-04
-6.521531e-04
-7.841649e-04
-9.086248e-04
-1.024334e-03
-1.130179e-03
-1.225139e-03
-1.308300e-03
-1.378862e-03
-1.436145e-03
-1.479596e-03
-1.508799e-03
-1.523471e-03
-1.523471e-03
-1.508799e-03
-1.479596e-03
-1.436145e-03
-1.378862e-03
-1.308300e-03
-1.225139e-03
-1.130179e-03
-1.024334e-03
-9.086248e-04
-7.841649e-04
-6.521531e-04
-5.138607e-04
-3.706196e-04
-2.238091e-04
-7.484331e-05
7.484331e-05
2.238091e-04
3.706196e-04
5.138607e-04
6.521531e-04
7.841649e-04
9.086248e-04
1.024334e-03
1.130179e-03
1.225139e-03
1.308300e-03
1.378862e-03
1.436145e-03
1.479596e-03
1.508799e-03
1.523471e-03
1.614002e-03
1.598459e-03
1.567521e-03
1.521487e-03
1.460800e-03
1.386045e-03
1.297942e-03
1.197339e-03
1.085205e-03
9.626195e-04
8.307637e-04
6.909071e-04
5.443967e-04
3.926435e-04
2.371089e-04
7.929085e-05
-7.929085e-05
-2.371089e-04
-3.926435e-04
-5.443967e-04
-6.909071e-04
-8.307637e-04
-9.626195e-04
-1.085205e-03
-1.197339e-03
-1.297942e-03
-1.386045e-03
-1.460800e-03
-1.521487e-03
-1.567521e-03
-1.598459e-03
-1.614002e-03
-1.614002e-03
-1.598459e-03
-1.567521e-03
-1.521487e-03
-1.460800e-03
-1.386045e-03
-1.297942e-03
-1.197339e-03
-1.085205e-03
-9.626195e-04
-8.307637e-04
-6.909071e-04
-5.443967e-04
-3.926435e-04
-2.371089e-04
-7.929085e-05
7.929085e-05
2.371089e-04
3.926435e-04
5.443967e-04
6.909071e-04
8.307637e-04
9.626195e-04
1.085205e-03
1.197339e-03
1.297942e-03
1.386045e-03
1.460800e-03
1.521487e-03
1.567521e-03
1.598459e-03
1.614002e-03
1.712350e-03
1.695859e-03
1.663036e-03
1.614198e-03
1.549813e-03
1.470503e-03
1.377031e-03
1.270298e-03
1.151331e-03
1.021276e-03
8.813856e-04
7.330070e-04
5.775691e-04
4.165690e-04
2.515570e-04
8.412237e-05
-8.412237e-05
-2.515570e-04
-4.165690e-04
-5.775691e-04
-7.330070e-04
-8.813856e-04
-1.021276e-03
-1.151331e-03
-1.270298e-03
-1.377031e-03
-1.470503e-03
-1.549813e-03
-1.614198e-03
-1.663036e-03
-1.695859e-03
-1.712350e-03
-1.712350e-03
-1.695859e-03
-1.663036e-03
-1.614198e-03
-1.549813e-03
-1.470503e-03
-1.377031e-03
-1.270298e-03
-1.151331e-03
-1.021276e-03
-8.813856e-04
-7.330070e-04
-5.775691e-04
-4.165690e-04
-2.515570e-04
-8.412237e-05
8.412237e-05
2.515570e-04
4.165690e-04
5.775691e-04
7.330070e-04
8.813856e-04
1.021276e-03
1.151331e-03
1.270298e-03
1.377031e-03
1.470503e-03
1.549813e-03
1.614198e-03
1.663036e-03
1.695859e-03
1.712350e-03
1.818745e-03
1.801230e-03
1.766367e-03
1.714494e-03
1.646109e-03
1.561871e-03
1.462592e-03
1.349226e-03
1.222868e-03
1.084732e-03
9.361495e-04
7.785516e-04
6.134557e-04
4.424520e-04
2.671872e-04
8.934922e-05
-8.934922e-05
-2.671872e-04
-4.424520e-04
-6.134557e-04
-7.785516e-04
-9.361495e-04
-1.084732e-03
-1.222868e-03
-1.349226e-03
-1.462592e-03
-1.561871e-03
-1.646109e-03
-1.714494e-03
-1.766367e-03
-1.801230e-03
-1.818745e-03
-1.818745e-03
-1.801230e-03
-1.766367e-03
-1.714494e-03
-1.646109e-03
-1.561871e-03
-1.462592e-03
-1.349226e-03
-1.222868e-03
-1.084732e-03
-9.361495e-04
-7.785516e-04
-6.134557e-04
-4.424520e-04
-2.671872e-04
-8.934922e-05
8.934922e-05
2.671872e-04
4.424520e-04
6.134557e-04
7.785516e-04
9.361495e-04
1.084732e-03
1.222868e-03
1.349226e-03
1.462592e-03
1.561871e-03
1.646109e-03
1.714494e-03
1.766367e-03
1.801230e-03
1.818745e-03
1.933413e-03
1.914793e-03
1.877733e-03
1.822589e-03
1.749893e-03
1.660344e-03
1.554805e-03
1.434292e-03
1.299967e-03
1.153122e-03
9.951717e-04
8.276376e-04
6.521328e-04
4.703476e-04
2.840328e-04
9.498250e-05
-9.498250e-05
-2.840328e-04
-4.703476e-04
-6.521328e-04
-8.276376e-04
-9.951717e-04
-1.153122e-03
-1.299967e-03
-1.434292e-03
-1.554805e-03
-1.660344e-03
-1.749893e-03
-1.822589e-03
-1.877733e-03
-1.914793e-03
-1.933413e-03
-1.933413e-03
-1.914793e-03
-1.877733e-03
-1.822589e-03
-1.749893e-03
-1.660344e-03
-1.554805e-03
-1.434292e-03
-1.299967e-03
-1.153122e-03
-9.951717e-04
-8.276376e-04
-6.521328e-04
-4.703476e-04
-2.840328e-04
-9.498250e-05
9.498250e-05
2.840328e-04
4.703476e-04
6.521328e-04
8.276376e-04
9.951717e-04
1.153122e-03
1.299967e-03
1.434292e-03
1.554805e-03
1.660344e-03
1.749893e-03
1.822589e-03
1.877733e-03
1.914793e-03
1.933413e-03
2.056570e-03
2.036764e-03
1.997343e-03
1.938687e-03
1.861360e-03
1.766107e-03
1.653845e-03
1.525656e-03
1.382774e-03
1.226575e-03
1.058564e-03
8.803576e-04
6.936732e-04
5.003085e-04
3.021255e-04
1.010328e-04
-1.010328e-04
-3.021255e-04
-5.003085e-04
-6.936732e-04
-8.803576e-04
-1.058564e-03
-1.226575e-03
-1.382774e-03
-1.525656e-03
-1.653845e-03
-1.766107e-03
-1.861360e-03
-1.938687e-03
-1.997343e-03
-2.036764e-03
-2.056570e-03
-2.056570e-03
-2.036764e-03
-1.997343e-03
-1.938687e-03
-1.861360e-03
-1.766107e-03
-1.653845e-03
-1.525656e-03
-1.382774e-03
-1.226575e-03
-1.058564e-03
-8.803576e-04
-6.936732e-04
-5.003085e-04
-3.021255e-04
-1.010328e-04
1.010328e-04
3.021255e-04
5.003085e-04
6.936732e-04
8.803576e-04
1.058564e-03
1.226575e-03
1.382774e-03
1.525656e-03
1.653845e-03
1.766107e-03
1.861360e-03
1.938687e-03
1.997343e-03
2.036764e-03
2.056570e-03
2.188416e-03
2.167341e-03
2.125392e-03
2.062975e-03
1.980691e-03
1.879331e-03
1.759872e-03
1.623465e-03
1.471423e-03
1.305210e-03
1.126428e-03
9.367970e-04
7.381444e-04
5.323831e-04
3.214946e-04
1.075100e-04
-1.075100e-04
-3.214946e-04
-5.323831e-04
-7.381444e-04
-9.367970e-04
-1.126428e-03
-1.305210e-03
-1.471423e-03
-1.623465e-03
-1.759872e-03
-1.879331e-03
-1.980691e-03
-2.062975e-03
-2.125392e-03
-2.167341e-03
-2.188416e-03
-2.188416e-03
-2.167341e-03
-2.125392e-03
-2.062975e-03
-1.980691e-03
-1.879331e-03
-1.759872e-03
-1.623465e-03
-1.471423e-03
-1.305210e-03
-1.126428e-03
-9.367970e-04
-7.381444e-04
-5.323831e-04
-3.214946e-04
-1.075100e-04
1.075100e-04
3.214946e-04
5.323831e-04
7.381444e-04
9.367970e-04
1.126428e-03
1.305210e-03
1.471423e-03
1.623465e-03
1.759872e-03
1.879331e-03
1.980691e-03
2.062975e-03
2.125392e-03
2.167341e-03
2.188416e-03
2.329127e-03
2.306696e-03
2.262051e-03
2.195620e-03
2.108045e-03
2.000168e-03
1.873028e-03
1.727851e-03
1.566032e-03
1.389133e-03
1.198855e-03
9.970311e-04
7.856055e-04
5.666142e-04
3.421661e-04
1.144227e-04
-1.144227e-04
-3.421661e-04
-5.666142e-04
-7.856055e-04
-9.970311e-04
-1.198855e-03
-1.389133e-03
-1.566032e-03
-1.727851e-03
-1.873028e-03
-2.000168e-03
-2.108045e-03
-2.195620e-03
-2.262051e-03
-2.306696e-03
-2.329127e-03
-2.329127e-03
-2.306696e-03
-2.262051e-03
-2.195620e-03
-2.108045e-03
-2.000168e-03
-1.873028e-03
-1.727851e-03
-1.566032e-03
-1.389133e-03
-1.198855e-03
-9.970311e-04
-7.856055e-04
-5.666142e-04
-3.421661e-04
-1.144227e-04
1.144227e-04
3.421661e-04
5.666142e-04
7.856055e-04
9.970311e-04
1.198855e-03
1.389133e-03
1.566032e-03
1.727851e-03
1.873028e-03
2.000168e-03
2.108045e-03
2.195620e-03
2.262051e-03
2.306696e-03
2.329127e-03
2.478844e-03
2.454972e-03
2.407456e-03
2.336756e-03
2.243551e-03
2.128740e-03
1.993428e-03
1.838918e-03
1.666698e-03
1.478427e-03
1.275918e-03
1.061121e-03
8.361046e-04
6.030364e-04
3.641607e-04
1.217778e-04
-1.217778e-04
-3.641607e-04
-6.030364e-04
-8.361046e-04
-1.061121e-03
-1.275918e-03
-1.478427e-03
-1.666698e-03
-1.838918e-03
-1.993428e-03
-2.128740e-03
-2.243551e-03
-2.336756e-03
-2.407456e-03
-2.454972e-03
-2.478844e-03
-2.478844e-03
-2.454972e-03
-2.407456e-03
-2.336756e-03
-2.243551e-03
-2.128740e-03
-1.993428e-03
-1.838918e-03
-1.666698e-03
-1.478427e-03
-1.275918e-03
-1.061121e-03
-8.361046e-04
-6.030364e-04
-3.641607e-04
-1.217778e-04
1.217778e-04
3.641607e-04
6.030364e-04
8.361046e-04
1.061121e-03
1.275918e-03
1.478427e-03
1.666698e-03
1.838918e-03
1.993428e-03
2.128740e-03
2.243551e-03
2.336756e-03
2.407456e-03
2.454972e-03
2.478844e-03
2.637668e-03
2.612265e-03
2.561706e-03
2.486475e-03
2.387299e-03
2.265131e-03
2.121149e-03
1.956740e-03
1.773485e-03
1.573152e-03
1.357667e-03
1.129108e-03
8.896751e-04
6.416739e-04
3.874930e-04
1.295803e-04
-1.295803e-04
-3.874930e-04
-6.416739e-04
-8.896751e-04
-1.129108e-03
-1.357667e-03
-1.573152e-03
-1.773485e-03
-1.956740e-03
-2.121149e-03
-2.265131e-03
-2.387299e-03
-2.486475e-03
-2.561706e-03
-2.612265e-03
-2.637668e-03
-2.637668e-03
-2.612265e-03
-2.561706e-03
-2.486475e-03
-2.387299e-03
-2.265131e-03
-2.121149e-03
-1.956740e-03
-1.773485e-03
-1.573152e-03
-1.357667e-03
-1.129108e-03
-8.896751e-04
-6.416739e-04
-3.874930e-04
-1.295803e-04
1.295803e-04
3.874930e-04
6.416739e-04
8.896751e-04
1.129108e-03
1.357667e-03
1.573152e-03
1.773485e-03
1.956740e-03
2.121149e-03
2.265131e-03
2.387299e-03
2.486475e-03
2.561706e-03
2.612265e-03
2.637668e-03
2.805640e-03
2.778620e-03
2.724841e-03