<VTKFile type='UnstructuredGrid' version='0.1' byte_order='BigEndian'> 
<UnstructuredGrid> 
<Piece NumberOfPoints='  4225 ' NumberOfCells='  4096 '> 
<Points> 
<DataArray type='Float32' NumberOfComponents='3' Format='ascii'> 
0.000000e+00 0.000000e+00 0.000000e+00 
1.562500e-02 0.000000e+00 0.000000e+00 
3.125000e-02 0.000000e+00 0.000000e+00 
4.687500e-02 0.000000e+00 0.000000e+00 
6.250000e-02 0.000000e+00 0.000000e+00 
7.812500e-02 0.000000e+00 0.000000e+00 
9.375000e-02 0.000000e+00 0.000000e+00 
1.093750e-01 0.000000e+00 0.000000e+00 
1.250000e-01 0.000000e+00 0.000000e+00 
1.406250e-01 0.000000e+00 0.000000e+00 
1.562500e-01 0.000000e+00 0.000000e+00 
1.718750e-01 0.000000e+00 0.000000e+00 
1.875000e-01 0.000000e+00 0.000000e+00 
2.031250e-01 0.000000e+00 0.000000e+00 
2.187500e-01 0.000000e+00 0.000000e+00 
2.343750e-01 0.000000e+00 0.000000e+00 
2.500000e-01 0.000000e+00 0.000000e+00 
2.656250e-01 0.000000e+00 0.000000e+00 
2.812500e-01 0.000000e+00 0.000000e+00 
2.968750e-01 0.000000e+00 0.000000e+00 
3.125000e-01 0.000000e+00 0.000000e+00 
3.281250e-01 0.000000e+00 0.000000e+00 
3.437500e-01 0.000000e+00 0.000000e+00 
3.593750e-01 0.000000e+00 0.000000e+00 
3.750000e-01 0.000000e+00 0.000000e+00 
3.906250e-01 0.000000e+00 0.000000e+00 
4.062500e-01 0.000000e+00 0.000000e+00 
4.218750e-01 0.000000e+00 0.000000e+00 
4.375000e-01 0.000000e+00 0.000000e+00 
4.531250e-01 0.000000e+00 0.000000e+00 
4.687500e-01 0.000000e+00 0.000000e+00 
4.843750e-01 0.000000e+00 0.000000e+00 
5.000000e-01 0.000000e+00 0.000000e+00 
5.156250e-01 0.000000e+00 0.000000e+00 
5.312500e-01 0.000000e+00 0.000000e+00 
5.468750e-01 0.000000e+00 0.000000e+00 
5.625000e-01 0.000000e+00 0.000000e+00 
5.781250e-01 0.000000e+00 0.000000e+00 
5.937500e-01 0.000000e+00 0.000000e+00 
6.093750e-01 0.000000e+00 0.000000e+00 
6.250000e-01 0.000000e+00 0.000000e+00 
6.406250e-01 0.000000e+00 0.000000e+00 
6.562500e-01 0.000000e+00 0.000000e+00 
6.718750e-01 0.000000e+00 0.000000e+00 
6.875000e-01 0.000000e+00 0.000000e+00 
7.031250e-01 0.000000e+00 0.000000e+00 
7.187500e-01 0.000000e+00 0.000000e+00 
7.343750e-01 0.000000e+00 0.000000e+00 
7.500000e-01 0.000000e+00 0.000000e+00 
7.656250e-01 0.000000e+00 0.000000e+00 
7.812500e-01 0.000000e+00 0.000000e+00 
7.968750e-01 0.000000e+00 0.000000e+00 
8.125000e-01 0.000000e+00 0.000000e+00 
8.281250e-01 0.000000e+00 0.000000e+00 
8.437500e-01 0.000000e+00 0.000000e+00 
8.593750e-01 0.000000e+00 0.000000e+00 
8.750000e-01 0.000000e+00 0.000000e+00 
8.906250e-01 0.000000e+00 0.000000e+00 
9.062500e-01 0.000000e+00 0.000000e+00 
9.218750e-01 0.000000e+00 0.000000e+00 
9.375000e-01 0.000000e+00 0.000000e+00 
9.531250e-01 0.000000e+00 0.000000e+00 
9.687500e-01 0.000000e+00 0.000000e+00 
9.843750e-01 0.000000e+00 0.000000e+00 
1.000000e+00 0.000000e+00 0.000000e+00 
0.000000e+00 1.562500e-02 0.000000e+00 
1.562500e-02 1.562500e-02 0.000000e+00 
3.125000e-02 1.562500e-02 0.000000e+00 
4.687500e-02 1.562500e-02 0.000000e+00 
6.250000e-02 1.562500e-02 0.000000e+00 
7.812500e-02 1.562500e-02 0.000000e+00 
9.375000e-02 1.562500e-02 0.000000e+00 
1.093750e-01 1.562500e-02 0.000000e+00 
1.250000e-01 1.562500e-02 0.000000e+00 
1.406250e-01 1.562500e-02 0.000000e+00 
1.562500e-01 1.562500e-02 0.000000e+00 
1.718750e-01 1.562500e-02 0.000000e+00 
1.875000e-01 1.562500e-02 0.000000e+00 
2.031250e-01 1.562500e-02 0.000000e+00 
2.187500e-01 1.562500e-02 0.000000e+00 
2.343750e-01 1.562500e-02 0.000000e+00 
2.500000e-01 1.562500e-02 0.000000e+00 
2.656250e-01 1.562500e-02 0.000000e+00 
2.812500e-01 1.562500e-02 0.000000e+00 
2.968750e-01 1.562500e-02 0.000000e+00 
3.125000e-01 1.562500e-02 0.000000e+00 
3.281250e-01 1.562500e-02 0.000000e+00 
3.437500e-01 1.562500e-02 0.000000e+00 
3.593750e-01 1.562500e-02 0.000000e+00 
3.750000e-01 1.562500e-02 0.000000e+00 
3.906250e-01 1.562500e-02 0.000000e+00 
4.062500e-01 1.562500e-02 0.000000e+00 
4.218750e-01 1.562500e-02 0.000000e+00 
4.375000e-01 1.562500e-02 0.000000e+00 
4.531250e-01 1.562500e-02 0.000000e+00 
4.687500e-01 1.562500e-02 0.000000e+00 
4.843750e-01 1.562500e-02 0.000000e+00 
5.000000e-01 1.562500e-02 0.000000e+00 
5.156250e-01 1.562500e-02 0.000000e+00 
5.312500e-01 1.562500e-02 0.000000e+00 
5.468750e-01 1.562500e-02 0.000000e+00 
5.625000e-01 1.562500e-02 0.000000e+00 
5.781250e-01 1.562500e-02 0.000000e+00 
5.937500e-01 1.562500e-02 0.000000e+00 
6.093750e-01 1.562500e-02 0.000000e+00 
6.250000e-01 1.562500e-02 0.000000e+00 
6.406250e-01 1.562500e-02 0.000000e+00 
6.562500e-01 1.562500e-02 0.000000e+00 
6.718750e-01 1.562500e-02 0.000000e+00 
6.875000e-01 1.562500e-02 0.000000e+00 
7.031250e-01 1.562500e-02 0.000000e+00 
7.187500e-01 1.562500e-02 0.000000e+00 
7.343750e-01 1.562500e-02 0.000000e+00 
7.500000e-01 1.562500e-02 0.000000e+00 
7.656250e-01 1.562500e-02 0.000000e+00 
7.812500e-01 1.562500e-02 0.000000e+00 
7.968750e-01 1.562500e-02 0.000000e+00 
8.125000e-01 1.562500e-02 0.000000e+00 
8.281250e-01 1.562500e-02 0.000000e+00 
8.437500e-01 1.562500e-02 0.000000e+00 
8.593750e-01 1.562500e-02 0.000000e+00 
8.750000e-01 1.562500e-02 0.000000e+00 
8.906250e-01 1.562500e-02 0.000000e+00 
9.062500e-01 1.562500e-02 0.000000e+00 
9.218750e-01 1.562500e-02 0.000000e+00 
9.375000e-01 1.562500e-02 0.000000e+00 
9.531250e-01 1.562500e-02 0.000000e+00 
9.687500e-01 1.562500e-02 0.000000e+00 
9.843750e-01 1.562500e-02 0.000000e+00 
1.000000e+00 1.562500e-02 0.000000e+00 
0.000000e+00 3.125000e-02 0.000000e+00 
1.562500e-02 3.125000e-02 0.000000e+00 
3.125000e-02 3.125000e-02 0.000000e+00 
4.687500e-02 3.125000e-02 0.000000e+00 
6.250000e-02 3.125000e-02 0.000000e+00 
7.812500e-02 3.125000e-02 0.000000e+00 
9.375000e-02 3.125000e-02 0.000000e+00 
1.093750e-01 3.125000e-02 0.000000e+00 
1.250000e-01 3.125000e-02 0.000000e+00 
1.406250e-01 3.125000e-02 0.000000e+00 
1.562500e-01 3.125000e-02 0.000000e+00 
1.718750e-01 3.125000e-02 0.000000e+00 
1.875000e-01 3.125000e-02 0.000000e+00 
2.031250e-01 3.125000e-02 0.000000e+00 
2.187500e-01 3.125000e-02 0.000000e+00 
2.343750e-01 3.125000e-02 0.000000e+00 
2.500000e-01 3.125000e-02 0.000000e+00 
2.656250e-01 3.125000e-02 0.000000e+00 
2.812500e-01 3.125000e-02 0.000000e+00 
2.968750e-01 3.125000e-02 0.000000e+00 
3.125000e-01 3.125000e-02 0.000000e+00 
3.281250e-01 3.125000e-02 0.000000e+00 
3.437500e-01 3.125000e-02 0.000000e+00 
3.593750e-01 3.125000e-02 0.000000e+00 
3.750000e-01 3.125000e-02 0.000000e+00 
3.906250e-01 3.125000e-02 0.000000e+00 
4.062500e-01 3.125000e-02 0.000000e+00 
4.218750e-01 3.125000e-02 0.000000e+00 
4.375000e-01 3.125000e-02 0.000000e+00 
4.531250e-01 3.125000e-02 0.000000e+00 
4.687500e-01 3.125000e-02 0.000000e+00 
4.843750e-01 3.125000e-02 0.000000e+00 
5.000000e-01 3.125000e-02 0.000000e+00 
5.156250e-01 3.125000e-02 0.000000e+00 
5.312500e-01 3.125000e-02 0.000000e+00 
5.468750e-01 3.125000e-02 0.000000e+00 
5.625000e-01 3.125000e-02 0.000000e+00 
5.781250e-01 3.125000e-02 0.000000e+00 
5.937500e-01 3.125000e-02 0.000000e+00 
6.093750e-01 3.125000e-02 0.000000e+00 
6.250000e-01 3.125000e-02 0.000000e+00 
6.406250e-01 3.125000e-02 0.000000e+00 
6.562500e-01 3.125000e-02 0.000000e+00 
6.718750e-01 3.125000e-02 0.000000e+00 
6.875000e-01 3.125000e-02 0.000000e+00 
7.031250e-01 3.125000e-02 0.000000e+00 
7.187500e-01 3.125000e-02 0.000000e+00 
7.343750e-01 3.125000e-02 0.000000e+00 
7.500000e-01 3.125000e-02 0.000000e+00 
7.656250e-01 3.125000e-02 0.000000e+00 
7.812500e-01 3.125000e-02 0.000000e+00 
7.968750e-01 3.125000e-02 0.000000e+00 
8.125000e-01 3.125000e-02 0.000000e+00 
8.281250e-01 3.125000e-02 0.000000e+00 
8.437500e-01 3.125000e-02 0.000000e+00 
8.593750e-01 3.125000e-02 0.000000e+00 
8.750000e-01 3.125000e-02 0.000000e+00 
8.906250e-01 3.125000e-02 0.000000e+00 
9.062500e-01 3.125000e-02 0.000000e+00 
9.218750e-01 3.125000e-02 0.000000e+00 
9.375000e-01 3.125000e-02 0.000000e+00 
9.531250e-01 3.125000e-02 0.000000e+00 
9.687500e-01 3.125000e-02 0.000000e+00 
9.843750e-01 3.125000e-02 0.000000e+00 
1.000000e+00 3.125000e-02 0.000000e+00 
0.000000e+00 4.687500e-02 0.000000e+00 
1.562500e-02 4.687500e-02 0.000000e+00 
3.125000e-02 4.687500e-02 0.000000e+00 
4.687500e-02 4.687500e-02 0.000000e+00 
6.250000e-02 4.687500e-02 0.000000e+00 
7.812500e-02 4.687500e-02 0.000000e+00 
9.375000e-02 4.687500e-02 0.000000e+00 
1.093750e-01 4.687500e-02 0.000000e+00 
1.250000e-01 4.687500e-02 0.000000e+00 
1.406250e-01 4.687500e-02 0.000000e+00 
1.562500e-01 4.687500e-02 0.000000e+00 
1.718750e-01 4.687500e-02 0.000000e+00 
1.875000e-01 4.687500e-02 0.000000e+00 
2.031250e-01 4.687500e-02 0.000000e+00 
2.187500e-01 4.687500e-02 0.000000e+00 
2.343750e-01 4.687500e-02 0.000000e+00 
2.500000e-01 4.687500e-02 0.000000e+00 
2.656250e-01 4.687500e-02 0.000000e+00 
2.812500e-01 4.687500e-02 0.000000e+00 
2.968750e-01 4.687500e-02 0.000000e+00 
3.125000e-01 4.687500e-02 0.000000e+00 
3.281250e-01 4.687500e-02 0.000000e+00 
3.437500e-01 4.687500e-02 0.000000e+00 
3.593750e-01 4.687500e-02 0.000000e+00 
3.750000e-01 4.687500e-02 0.000000e+00 
3.906250e-01 4.687500e-02 0.000000e+00 
4.062500e-01 4.687500e-02 0.000000e+00 
4.218750e-01 4.687500e-02 0.000000e+00 
4.375000e-01 4.687500e-02 0.000000e+00 
4.531250e-01 4.687500e-02 0.000000e+00 
4.687500e-01 4.687500e-02 0.000000e+00 
4.843750e-01 4.687500e-02 0.000000e+00 
5.000000e-01 4.687500e-02 0.000000e+00 
5.156250e-01 4.687500e-02 0.000000e+00 
5.312500e-01 4.687500e-02 0.000000e+00 
5.468750e-01 4.687500e-02 0.000000e+00 
5.625000e-01 4.687500e-02 0.000000e+00 
5.781250e-01 4.687500e-02 0.000000e+00 
5.937500e-01 4.687500e-02 0.000000e+00 
6.093750e-01 4.687500e-02 0.000000e+00 
6.250000e-01 4.687500e-02 0.000000e+00 
6.406250e-01 4.687500e-02 0.000000e+00 
6.562500e-01 4.687500e-02 0.000000e+00 
6.718750e-01 4.687500e-02 0.000000e+00 
6.875000e-01 4.687500e-02 0.000000e+00 
7.031250e-01 4.687500e-02 0.000000e+00 
7.187500e-01 4.687500e-02 0.000000e+00 
7.343750e-01 4.687500e-02 0.000000e+00 
7.500000e-01 4.687500e-02 0.000000e+00 
[...]
<CellData Scalars='scalars'>
<DataArray type='Float32' Name='exx' Format='ascii'> 
4.950714e-03
4.903036e-03
4.808139e-03
4.666937e-03
4.480790e-03
4.251490e-03
3.981246e-03
3.672661e-03
3.328706e-03
2.952694e-03
2.548245e-03
2.119256e-03
1.669857e-03
1.204376e-03
7.272967e-04
2.432130e-04
-2.432130e-04
-7.272967e-04
-1.204376e-03
-1.669857e-03
-2.119256e-03
-2.548245e-03
-2.952694e-03
-3.328706e-03
-3.672661e-03
-3.981246e-03
-4.251490e-03
-4.480790e-03
-4.666937e-03
-4.808139e-03
-4.903036e-03
-4.950714e-03
-4.950714e-03
-4.903036e-03
-4.808139e-03
-4.666937e-03
-4.480790e-03
-4.251490e-03
-3.981246e-03
-3.672661e-03
-3.328706e-03
-2.952694e-03
-2.548245e-03
-2.119256e-03
-1.669857e-03
-1.204376e-03
-7.272967e-04
-2.432130e-04
2.432130e-04
7.272967e-04
1.204376e-03
1.669857e-03
2.119256e-03
2.548245e-03
2.952694e-03
3.328706e-03
3.672661e-03
3.981246e-03
4.251490e-03
4.480790e-03
4.666937e-03
4.808139e-03
4.903036e-03
4.950714e-03
4.980154e-03
4.932192e-03
4.836731e-03
4.694689e-03
4.507435e-03
4.276772e-03
4.004921e-03
3.694501e-03
3.348500e-03
2.970252e-03
2.563399e-03
2.131858e-03
1.679787e-03
1.211538e-03
7.316216e-04
2.446593e-04
-2.446593e-04
-7.316216e-04
-1.211538e-03
-1.679787e-03
-2.131858e-03
-2.563399e-03
-2.970252e-03
-3.348500e-03
-3.694501e-03
-4.004921e-03
-4.276772e-03
-4.507435e-03
-4.694689e-03
-4.836731e-03
-4.932192e-03
-4.980154e-03
-4.980154e-03
-4.932192e-03
-4.836731e-03
-4.694689e-03
-4.507435e-03
-4.276772e-03
-4.004921e-03
-3.694501e-03
-3.348500e-03
-2.970252e-03
-2.563399e-03
-2.131858e-03
-1.679787e-03
-1.211538e-03
-7.316216e-04
-2.446593e-04
2.446593e-04
7.316216e-04
1.211538e-03
1.679787e-03
2.131858e-03
2.563399e-03
2.970252e-03
3.348500e-03
3.694501e-03
4.004921e-03
4.276772e-03
4.507435e-03
4.694689e-03
4.836731e-03
4.932192e-03
4.980154e-03
5.039141e-03
4.990611e-03
4.894019e-03
4.750295e-03
4.560823e-03
4.327428e-03
4.052357e-03
3.738260e-03
3.388161e-03
3.005433e-03
2.593760e-03
2.157109e-03
1.699683e-03
1.225888e-03
7.402872e-04
2.475571e-04
-2.475571e-04
-7.402872e-04
-1.225888e-03
-1.699683e-03
-2.157109e-03
-2.593760e-03
-3.005433e-03
-3.388161e-03
-3.738260e-03
-4.052357e-03
-4.327428e-03
-4.560823e-03
-4.750295e-03
-4.894019e-03
-4.990611e-03
-5.039141e-03
-5.039141e-03
-4.990611e-03
-4.894019e-03
-4.750295e-03
-4.560823e-03
-4.327428e-03
-4.052357e-03
-3.738260e-03
-3.388161e-03
-3.005433e-03
-2.593760e-03
-2.157109e-03
-1.699683e-03
-1.225888e-03
-7.402872e-04
-2.475571e-04
2.475571e-04
7.402872e-04
1.225888e-03
1.699683e-03
2.157109e-03
2.593760e-03
3.005433e-03
3.388161e-03
3.738260e-03
4.052357e-03
4.327428e-03
4.560823e-03
4.750295e-03
4.894019e-03
4.990611e-03
5.039141e-03
5.127886e-03
5.078502e-03
4.980209e-03
4.833954e-03
4.641145e-03
4.403639e-03
4.123724e-03
3.804095e-03
3.447831e-03
3.058362e-03
2.639440e-03
2.195098e-03
1.729616e-03
1.247477e-03
7.533246e-04
2.519169e-04
-2.519169e-04
-7.533246e-04
-1.247477e-03
-1.729616e-03
-2.195098e-03
-2.639440e-03
-3.058362e-03
-3.447831e-03
-3.804095e-03
-4.123724e-03
-4.403639e-03
-4.641145e-03
-4.833954e-03
-4.980209e-03
-5.078502e-03
-5.127886e-03
-5.127886e-03
-5.078502e-03
-4.980209e-03
-4.833954e-03
-4.641145e-03
-4.403639e-03
-4.123724e-03
-3.804095e-03
-3.447831e-03
-3.058362e-03
-2.639440e-03
-2.195098e-03
-1.729616e-03
-1.247477e-03
-7.533246e-04
-2.519169e-04
2.519169e-04
7.533246e-04
1.247477e-03
1.729616e-03
2.195098e-03
2.639440e-03
3.058362e-03
3.447831e-03
3.804095e-03
4.123724e-03
4.403639e-03
4.641145e-03
4.833954e-03
4.980209e-03
5.078502e-03
5.127886e-03
5.246708e-03
5.196179e-03
5.095609e-03
4.945964e-03
4.748688e-03
4.505679e-03
4.219278e-03
3.892243e-03
3.527723e-03
3.129230e-03
2.700600e-03
2.245962e-03
1.769694e-03
1.276384e-03
7.707804e-04
2.577542e-04
-2.577542e-04
-7.707804e-04
-1.276384e-03
-1.769694e-03
-2.245962e-03
-2.700600e-03
-3.129230e-03
-3.527723e-03
-3.892243e-03
-4.219278e-03
-4.505679e-03
-4.748688e-03
-4.945964e-03
-5.095609e-03
-5.196179e-03
-5.246708e-03
-5.246708e-03
-5.196179e-03
-5.095609e-03
-4.945964e-03
-4.748688e-03
-4.505679e-03
-4.219278e-03
-3.892243e-03
-3.527723e-03
-3.129230e-03
-2.700600e-03
-2.245962e-03
-1.769694e-03
-1.276384e-03
-7.707804e-04
-2.577542e-04
2.577542e-04
7.707804e-04
1.276384e-03
1.769694e-03
2.245962e-03
2.700600e-03
3.129230e-03
3.527723e-03
3.892243e-03
4.219278e-03
4.505679e-03
4.748688e-03
4.945964e-03
5.095609e-03
5.196179e-03
5.246708e-03
5.396025e-03
5.344059e-03
5.240626e-03
5.086723e-03
4.883832e-03
4.633907e-03
4.339355e-03
4.003013e-03
3.628119e-03
3.218285e-03
2.777457e-03
2.309880e-03
1.820059e-03
1.312708e-03
7.927162e-04
2.650897e-04
-2.650897e-04
-7.927162e-04
-1.312708e-03
-1.820059e-03
-2.309880e-03
-2.777457e-03
-3.218285e-03
-3.628119e-03
-4.003013e-03
-4.339355e-03
-4.633907e-03
-4.883832e-03
-5.086723e-03
-5.240626e-03
-5.344059e-03
-5.396025e-03
-5.396025e-03
-5.344059e-03
-5.240626e-03
-5.086723e-03
-4.883832e-03
-4.633907e-03
-4.339355e-03
-4.003013e-03
-3.628119e-03
-3.218285e-03
-2.777457e-03
-2.309880e-03
-1.820059e-03
-1.312708e-03
-7.927162e-04
-2.650897e-04
2.650897e-04
7.927162e-04
1.312708e-03
1.820059e-03
2.309880e-03
2.777457e-03
3.218285e-03
3.628119e-03
4.003013e-03
4.339355e-03
4.633907e-03
4.883832e-03
5.086723e-03
5.240626e-03
5.344059e-03
5.396025e-03
5.576357e-03
5.522654e-03
5.415764e-03
5.256718e-03
5.047046e-03
4.788769e-03
4.484374e-03
4.136791e-03
3.749369e-03
3.325838e-03
2.870278e-03
2.387075e-03
1.880884e-03
1.356578e-03
8.192083e-04
2.739489e-04
-2.739489e-04
-8.192083e-04
-1.356578e-03
-1.880884e-03
-2.387075e-03
-2.870278e-03
-3.325838e-03
-3.749369e-03
-4.136791e-03
-4.484374e-03
-4.788769e-03
-5.047046e-03
-5.256718e-03
-5.415764e-03
-5.522654e-03
-5.576357e-03
-5.576357e-03
-5.522654e-03
-5.415764e-03
-5.256718e-03
-5.047046e-03
-4.788769e-03
-4.484374e-03
-4.136791e-03
-3.749369e-03
-3.325838e-03
-2.870278e-03
-2.387075e-03
-1.880884e-03
-1.356578e-03
-8.192083e-04
-2.739489e-04
2.739489e-04
8.192083e-04
1.356578e-03
1.880884e-03
2.387075e-03
2.870278e-03
3.325838e-03
3.749369e-03
4.136791e-03
4.484374e-03
4.788769e-03
5.047046e-03
5.256718e-03
5.415764e-03
5.522654e-03
5.576357e-03
5.788317e-03
5.732572e-03
5.621620e-03
5.456528e-03
5.238887e-03
4.970793e-03
4.654827e-03
4.294032e-03
3.891884e-03
3.452255e-03
2.979378e-03
2.477809e-03
1.952377e-03
1.408142e-03
8.503468e-04
2.843618e-04
-2.843618e-04
-8.503468e-04
-1.408142e-03
-1.952377e-03
-2.477809e-03
-2.979378e-03
-3.452255e-03
-3.891884e-03
-4.294032e-03
-4.654827e-03
-4.970793e-03
-5.238887e-03
-5.456528e-03
-5.621620e-03
-5.732572e-03
-5.788317e-03
-5.788317e-03
-5.732572e-03
-5.621620e-03
-5.456528e-03
-5.238887e-03
-4.970793e-03
-4.654827e-03
-4.294032e-03
-3.891884e-03
-3.452255e-03
-2.979378e-03
-2.477809e-03
-1.952377e-03
-1.408142e-03
-8.503468e-04
-2.843618e-04
2.843618e-04
8.503468e-04
1.408142e-03
1.952377e-03
2.477809e-03
2.979378e-03
3.452255e-03
3.891884e-03
4.294032e-03
4.654827e-03
4.970793e-03
5.238887e-03
5.456528e-03
5.621620e-03
5.732572e-03
5.788317e-03
6.032610e-03
5.974512e-03
5.858877e-03
5.686818e-03
5.459991e-03
5.180582e-03
4.851281e-03
4.475260e-03
4.056139e-03
3.597955e-03
3.105122e-03
2.582384e-03
2.034776e-03
1.467572e-03
8.862352e-04
2.963631e-04
-2.963631e-04
-8.862352e-04
-1.467572e-03
-2.034776e-03
-2.582384e-03
-3.105122e-03
-3.597955e-03
-4.056139e-03
-4.475260e-03
-4.851281e-03
-5.180582e-03
-5.459991e-03
-5.686818e-03
-5.858877e-03
-5.974512e-03
-6.032610e-03
-6.032610e-03
-5.974512e-03
-5.858877e-03
-5.686818e-03
-5.459991e-03
-5.180582e-03
-4.851281e-03
-4.475260e-03
-4.056139e-03
-3.597955e-03
-3.105122e-03
-2.582384e-03
-2.034776e-03
-1.467572e-03
-8.862352e-04
-2.963631e-04
2.963631e-04
8.862352e-04
1.467572e-03
2.034776e-03
2.582384e-03
3.105122e-03
3.597955e-03
4.056139e-03
4.475260e-03
4.851281e-03
5.180582e-03
5.459991e-03
5.686818e-03
5.858877e-03
5.974512e-03
6.032610e-03
6.310025e-03
6.249256e-03
6.128303e-03
5.948331e-03
5.711074e-03
5.418816e-03
5.074372e-03
4.681058e-03
4.242664e-03
3.763410e-03
3.247913e-03
2.701137e-03
2.128347e-03
1.535060e-03
9.269895e-04
3.099916e-04
-3.099916e-04
-9.269895e-04
-1.535060e-03
-2.128347e-03
-2.701137e-03
-3.247913e-03
-3.763410e-03
-4.242664e-03
-4.681058e-03
-5.074372e-03
-5.418816e-03
-5.711074e-03
-5.948331e-03
-6.128303e-03
-6.249256e-03
-6.310025e-03
-6.310025e-03
-6.249256e-03
-6.128303e-03
-5.948331e-03
-5.711074e-03
-5.418816e-03
-5.074372e-03
-4.681058e-03
-4.242664e-03
-3.763410e-03
-3.247913e-03
-2.701137e-03
-2.128347e-03
-1.535060e-03
-9.269895e-04
-3.099916e-04
3.099916e-04
9.269895e-04
1.535060e-03
2.128347e-03
2.701137e-03
3.247913e-03
3.763410e-03
4.242664e-03
4.681058e-03
5.074372e-03
5.418816e-03
5.711074e-03
5.948331e-03
6.128303e-03
6.249256e-03
6.310025e-03
6.621427e-03
6.557659e-03
6.430737e-03
6.241884e-03
5.992918e-03
5.686237e-03
5.324794e-03
4.912070e-03
4.452041e-03
3.949136e-03
3.408199e-03
2.834439e-03
2.233382e-03
1.610816e-03
9.727368e-04
3.252898e-04
-3.252898e-04
-9.727368e-04
-1.610816e-03
-2.233382e-03
-2.834439e-03
-3.408199e-03
-3.949136e-03
-4.452041e-03
-4.912070e-03
-5.324794e-03
-5.686237e-03
-5.992918e-03
-6.241884e-03
-6.430737e-03
-6.557659e-03
-6.621427e-03
-6.621427e-03
-6.557659e-03
-6.430737e-03
-6.241884e-03
-5.992918e-03
-5.686237e-03
-5.324794e-03
-4.912070e-03
-4.452041e-03
-3.949136e-03
-3.408199e-03
-2.834439e-03
-2.233382e-03
-1.610816e-03
-9.727368e-04
-3.252898e-04
3.252898e-04
9.727368e-04
1.610816e-03
2.233382e-03
2.834439e-03
3.408199e-03
3.949136e-03
4.452041e-03
4.912070e-03
5.324794e-03
5.686237e-03
5.992918e-03
6.241884e-03
6.430737e-03
6.557659e-03
6.621427e-03
6.967750e-03
6.900646e-03
6.767086e-03
6.568355e-03
6.306367e-03
5.983646e-03
5.603298e-03
5.168988e-03
4.684898e-03
4.155689e-03
3.586459e-03
2.982690e-03
2.350195e-03
1.695067e-03
1.023614e-03
3.423036e-04
-3.423036e-04
-1.023614e-03
-1.695067e-03
-2.350195e-03
-2.982690e-03
-3.586459e-03
-4.155689e-03
-4.684898e-03
-5.168988e-03
-5.603298e-03
-5.983646e-03
-6.306367e-03
-6.568355e-03
-6.767086e-03
-6.900646e-03
-6.967750e-03
-6.967750e-03
-6.900646e-03
-6.767086e-03
-6.568355e-03
-6.306367e-03
-5.983646e-03
-5.603298e-03
-5.168988e-03
-4.684898e-03
-4.155689e-03
-3.586459e-03
-2.982690e-03
-2.350195e-03
-1.695067e-03
-1.023614e-03
-3.423036e-04
3.423036e-04
1.023614e-03
1.695067e-03
2.350195e-03
2.982690e-03
3.586459e-03
4.155689e-03
4.684898e-03
5.168988e-03
5.603298e-03
5.983646e-03
6.306367e-03
6.568355e-03
6.767086e-03
6.900646e-03
6.967750e-03
7.349983e-03
7.279198e-03
7.138311e-03
6.928678e-03
6.652319e-03
6.311893e-03
5.910681e-03
5.452546e-03
4.941899e-03
4.383660e-03
3.783203e-03
3.146312e-03
2.479121e-03
1.788054e-03
1.079767e-03
3.610815e-04
-3.610815e-04
-1.079767e-03
-1.788054e-03
-2.479121e-03
-3.146312e-03
-3.783203e-03
-4.383660e-03
-4.941899e-03
-5.452546e-03
-5.910681e-03
-6.311893e-03
-6.652319e-03
-6.928678e-03
-7.138311e-03
-7.279198e-03
-7.349983e-03
-7.349983e-03
-7.279198e-03
-7.138311e-03
-6.928678e-03
-6.652319e-03
-6.311893e-03
-5.910681e-03
-5.452546e-03
-4.941899e-03
-4.383660e-03
-3.783203e-03
-3.146312e-03
-2.479121e-03
-1.788054e-03
-1.079767e-03
-3.610815e-04
3.610815e-04
1.079767e-03
1.788054e-03
2.479121e-03
3.146312e-03
3.783203e-03
4.383660e-03
4.941899e-03
5.452546e-03
5.910681e-03
6.311893e-03
6.652319e-03
6.928678e-03
7.138311e-03
7.279198e-03
7.349983e-03
7.769159e-03
7.694337e-03
7.545415e-03
7.323827e-03
7.031706e-03
6.671866e-03
6.247772e-03
5.763509e-03
5.223740e-03
4.633664e-03
3.998963e-03
3.325749e-03
2.620507e-03
1.890028e-03
1.141347e-03
3.816743e-04
-3.816743e-04
-1.141347e-03
-1.890028e-03
-2.620507e-03
-3.325749e-03
-3.998963e-03
-4.633664e-03
-5.223740e-03
-5.763509e-03
-6.247772e-03
-6.671866e-03
-7.031706e-03
-7.323827e-03
-7.545415e-03
-7.694337e-03
-7.769159e-03
-7.769159e-03
-7.694337e-03
-7.545415e-03
-7.323827e-03
-7.031706e-03
-6.671866e-03
-6.247772e-03
-5.763509e-03
-5.223740e-03
-4.633664e-03
-3.998963e-03
-3.325749e-03
-2.620507e-03
-1.890028e-03
-1.141347e-03
-3.816743e-04
3.816743e-04
1.141347e-03
1.890028e-03
2.620507e-03
3.325749e-03
3.998963e-03
4.633664e-03
5.223740e-03
5.763509e-03
6.247772e-03
6.671866e-03
7.031706e-03
7.323827e-03
7.545415e-03
7.694337e-03
7.769159e-03
8.226338e-03
8.147114e-03
7.989428e-03
7.754801e-03
7.445490e-03
7.064475e-03
6.615425e-03
6.102665e-03
5.531133e-03
4.906334e-03
4.234283e-03
3.521454e-03
2.774712e-03
2.001248e-03
1.208510e-03
4.041341e-04
-4.041341e-04
-1.208510e-03
-2.001248e-03
-2.774712e-03
-3.521454e-03
-4.234283e-03
-4.906334e-03
-5.531133e-03
-6.102665e-03
-6.615425e-03
-7.064475e-03
-7.445490e-03
-7.754801e-03
-7.989428e-03
-8.147114e-03
-8.226338e-03
-8.226338e-03
-8.147114e-03
-7.989428e-03
-7.754801e-03
-7.445490e-03
-7.064475e-03
-6.615425e-03
-6.102665e-03
-5.531133e-03
-4.906334e-03
-4.234283e-03
-3.521454e-03
-2.774712e-03
-2.001248e-03
-1.208510e-03
-4.041341e-04
4.041341e-04
1.208510e-03
2.001248e-03
2.774712e-03
3.521454e-03
4.234283e-03
4.906334e-03
5.531133e-03
6.102665e-03
6.615425e-03
7.064475e-03
7.445490e-03
7.754801e-03
7.989428e-03
8.147114e-03
8.226338e-03
8.722590e-03
8.638586e-03
8.471389e-03
8.222607e-03
7.894637e-03
7.490637e-03
7.014499e-03
6.470807e-03
5.864797e-03
5.202307e-03
4.489715e-03
3.733885e-03
2.942096e-03
2.121972e-03
1.281413e-03
4.285133e-04
-4.285133e-04
-1.281413e-03
-2.121972e-03
-2.942096e-03
-3.733885e-03
-4.489715e-03
-5.202307e-03
-5.864797e-03
-6.470807e-03
-7.014499e-03
-7.490637e-03
-7.894637e-03
-8.222607e-03
-8.471389e-03
-8.638586e-03
-8.722590e-03
-8.722590e-03
-8.638586e-03
-8.471389e-03
-8.222607e-03
-7.894637e-03
-7.490637e-03
-7.014499e-03
-6.470807e-03
-5.864797e-03
-5.202307e-03
-4.489715e-03
-3.733885e-03
-2.942096e-03
-2.121972e-03
-1.281413e-03
-4.285133e-04
4.285133e-04
1.281413e-03
2.121972e-03
2.942096e-03
3.733885e-03
4.489715e-03
5.202307e-03
5.864797e-03
6.470807e-03
7.014499e-03
7.490637e-03
7.894637e-03
8.222607e-03
8.471389e-03
8.638586e-03
8.722590e-03
9.258970e-03
9.169801e-03
8.992321e-03
8.728241e-03
8.380104e-03
7.951261e-03
7.445843e-03
6.868718e-03
6.225443e-03
5.522213e-03
4.765802e-03
3.963494e-03
3.123015e-03
2.252459e-03
1.360211e-03
4.548640e-04
-4.548640e-04
-1.360211e-03
-2.252459e-03
-3.123015e-03
-3.963494e-03
-4.765802e-03
-5.522213e-03
-6.225443e-03
-6.868718e-03
-7.445843e-03
-7.951261e-03
-8.380104e-03
-8.728241e-03
-8.992321e-03
-9.169801e-03
-9.258970e-03
-9.258970e-03
-9.169801e-03
-8.992321e-03
-8.728241e-03
-8.380104e-03
-7.951261e-03
-7.445843e-03
-6.868718e-03
-6.225443e-03
-5.522213e-03
-4.765802e-03
-3.963494e-03
-3.123015e-03
-2.252459e-03
-1.360211e-03
-4.548640e-04
4.548640e-04
1.360211e-03
2.252459e-03
3.123015e-03
3.963494e-03
4.765802e-03
5.522213e-03
6.225443e-03
6.868718e-03
7.445843e-03
7.951261e-03
8.380104e-03
8.728241e-03
8.992321e-03
9.169801e-03
9.258970e-03
9.836495e-03
9.741764e-03
9.553215e-03
9.272663e-03
8.902810e-03
8.447218e-03
7.910275e-03
7.297152e-03
6.613753e-03
5.866660e-03
5.063068e-03
4.210715e-03
3.317812e-03
2.392956e-03
1.445054e-03
4.832360e-04
-4.832360e-04
-1.445054e-03
-2.392956e-03
-3.317812e-03
-4.210715e-03
-5.063068e-03
-5.866660e-03
-6.613753e-03
-7.297152e-03
-7.910275e-03
-8.447218e-03
-8.902810e-03
-9.272663e-03
-9.553215e-03
-9.741764e-03
-9.836495e-03
-9.836495e-03
-9.741764e-03
-9.553215e-03
-9.272663e-03
-8.902810e-03
-8.447218e-03
-7.910275e-03
-7.297152e-03
-6.613753e-03
-5.866660e-03
-5.063068e-03
-4.210715e-03
-3.317812e-03
-2.392956e-03
-1.445054e-03
-4.832360e-04
4.832360e-04
1.445054e-03
2.392956e-03
3.317812e-03
4.210715e-03
5.063068e-03
5.866660e-03
6.613753e-03
7.297152e-03
7.910275e-03
8.447218e-03
8.902810e-03
9.272663e-03
9.553215e-03
9.741764e-03
9.836495e-03
1.045611e-02
1.035541e-02
1.015499e-02
9.856763e-03
9.463613e-03
8.979323e-03
8.408557e-03
7.756812e-03
7.030364e-03
6.236211e-03
5.381999e-03
4.475956e-03
3.526806e-03
2.543692e-03
1.536081e-03
5.136759e-04
-5.136759e-04
-1.536081e-03
-2.543692e-03
-3.526806e-03
-4.475956e-03
-5.381999e-03
-6.236211e-03
-7.030364e-03
-7.756812e-03
-8.408557e-03
-8.979323e-03
-9.463613e-03
-9.856763e-03
-1.015499e-02
-1.035541e-02
-1.045611e-02
-1.045611e-02
-1.035541e-02
-1.015499e-02
-9.856763e-03
-9.463613e-03
-8.979323e-03
-8.408557e-03
-7.756812e-03
-7.030364e-03
-6.236211e-03
-5.381999e-03
-4.475956e-03
-3.526806e-03
-2.543692e-03
-1.536081e-03
-5.136759e-04
5.136759e-04
1.536081e-03
2.543692e-03
3.526806e-03
4.475956e-03
5.381999e-03
6.236211e-03
7.030364e-03
7.756812e-03
8.408557e-03
8.979323e-03
9.463613e-03
9.856763e-03
1.015499e-02
1.035541e-02
1.045611e-02
1.111866e-02
1.101159e-02
1.079846e-02
1.048134e-02
1.006327e-02
9.548298e-03
8.941365e-03
8.248322e-03
7.475843e-03
6.631368e-03
5.723029e-03
4.759575e-03
3.750282e-03
2.704873e-03
1.633414e-03
5.462249e-04
-5.462249e-04
-1.633414e-03
-2.704873e-03
-3.750282e-03
-4.759575e-03
-5.723029e-03
-6.631368e-03
-7.475843e-03
-8.248322e-03
-8.941365e-03
-9.548298e-03
-1.006327e-02
-1.048134e-02
-1.079846e-02
-1.101159e-02
-1.111866e-02
-1.111866e-02
-1.101159e-02
-1.079846e-02
-1.048134e-02
-1.006327e-02
-9.548298e-03
-8.941365e-03
-8.248322e-03
-7.475843e-03
-6.631368e-03
-5.723029e-03
-4.759575e-03
-3.750282e-03
-2.704873e-03
-1.633414e-03
-5.462249e-04
5.462249e-04
1.633414e-03
2.704873e-03
3.750282e-03
4.759575e-03
5.723029e-03
6.631368e-03
7.475843e-03
8.248322e-03
8.941365e-03
9.548298e-03
1.006327e-02
1.048134e-02
1.079846e-02
1.101159e-02
1.111866e-02
1.182485e-02
1.171097e-02
1.148430e-02
1.114704e-02
1.070243e-02
1.015474e-02
9.509259e-03
8.772199e-03
7.950658e-03
7.052547e-03
6.086517e-03
5.061870e-03
3.988475e-03
2.876668e-03
1.737158e-03
5.809174e-04
-5.809174e-04
-1.737158e-03
-2.876668e-03
-3.988475e-03
-5.061870e-03
-6.086517e-03
-7.052547e-03
-7.950658e-03
-8.772199e-03
-9.509259e-03
-1.015474e-02
-1.070243e-02
-1.114704e-02
-1.148430e-02
-1.171097e-02
-1.182485e-02
-1.182485e-02
-1.171097e-02
-1.148430e-02
-1.114704e-02
-1.070243e-02
-1.015474e-02
-9.509259e-03
-8.772199e-03
-7.950658e-03
-7.052547e-03
-6.086517e-03
-5.061870e-03
-3.988475e-03
-2.876668e-03
-1.737158e-03
-5.809174e-04
5.809174e-04
1.737158e-03
2.876668e-03
3.988475e-03
5.061870e-03
6.086517e-03
7.052547e-03
7.950658e-03
8.772199e-03
9.509259e-03
1.015474e-02
1.070243e-02
1.114704e-02
1.148430e-02
1.171097e-02
1.182485e-02
1.257516e-02
1.245405e-02
1.221300e-02
1.185434e-02
1.138152e-02
1.079908e-02
1.011264e-02
9.328813e-03
8.455143e-03
7.500046e-03
6.472719e-03
5.383056e-03
4.241551e-03
3.059198e-03
1.847384e-03
6.177778e-04
-6.177778e-04
-1.847384e-03
-3.059198e-03
-4.241551e-03
-5.383056e-03
-6.472719e-03
-7.500046e-03
-8.455143e-03
-9.328813e-03
-1.011264e-02
-1.079908e-02
-1.138152e-02
-1.185434e-02
-1.221300e-02
-1.245405e-02
-1.257516e-02
-1.257516e-02
-1.245405e-02
-1.221300e-02
-1.185434e-02
-1.138152e-02
-1.079908e-02
-1.011264e-02
-9.328813e-03
-8.455143e-03
-7.500046e-03
-6.472719e-03
-5.383056e-03
-4.241551e-03
-3.059198e-03
-1.847384e-03
-6.177778e-04
6.177778e-04
1.847384e-03
3.059198e-03
4.241551e-03
5.383056e-03
6.472719e-03
7.500046e-03
8.455143e-03
9.328813e-03
1.011264e-02
1.079908e-02
1.138152e-02
1.185434e-02
1.221300e-02
1.245405e-02
1.257516e-02
1.336984e-02
1.324108e-02
1.298481e-02
1.260348e-02
1.210077e-02
1.148153e-02
1.075171e-02
9.918347e-03
8.989466e-03
7.974011e-03
6.881762e-03
5.723238e-03
4.509596e-03
3.252525e-03
1.964129e-03
6.568183e-04
-6.568183e-04
-1.964129e-03
-3.252525e-03
-4.509596e-03
-5.723238e-03
-6.881762e-03
-7.974011e-03
-8.989466e-03
-9.918347e-03
-1.075171e-02
-1.148153e-02
-1.210077e-02
-1.260348e-02
-1.298481e-02
-1.324108e-02
-1.336984e-02
-1.336984e-02
-1.324108e-02
-1.298481e-02
-1.260348e-02
-1.210077e-02
-1.148153e-02
-1.075171e-02
-9.918347e-03
-8.989466e-03
-7.974011e-03
-6.881762e-03
-5.723238e-03
-4.509596e-03
-3.252525e-03
-1.964129e-03
-6.568183e-04
6.568183e-04
1.964129e-03
3.252525e-03
4.509596e-03
5.723238e-03
6.881762e-03
7.974011e-03
8.989466e-03
9.918347e-03
1.075171e-02
1.148153e-02
1.210077e-02
1.260348e-02
1.298481e-02
1.324108e-02
1.336984e-02
1.420884e-02
1.407200e-02
1.379964e-02