<VTKFile type='UnstructuredGrid' version='0.1' byte_order='BigEndian'> 
<UnstructuredGrid> 
<Piece NumberOfPoints=' 11310 ' NumberOfCells=' 10920 '> 
<Points> 
<DataArray type='Float32' NumberOfComponents='3' Format='ascii'> 
  1.220000   0.000000   0.000000 
  1.219842   0.019654   0.000000 
  1.219367   0.039303   0.000000 
  1.218575   0.058942   0.000000 
  1.217468   0.078566   0.000000 
  1.216044   0.098169   0.000000 
  1.214305   0.117747   0.000000 
  1.212250   0.137294   0.000000 
  1.209881   0.156806   0.000000 
  1.207198   0.176277   0.000000 
  1.204201   0.195702   0.000000 
  1.200892   0.215076   0.000000 
  1.197272   0.234395   0.000000 
  1.193340   0.253652   0.000000 
  1.189099   0.272844   0.000000 
  1.184549   0.291965   0.000000 
  1.179692   0.311010   0.000000 
  1.174528   0.329975   0.000000 
  1.169060   0.348854   0.000000 
  1.163288   0.367642   0.000000 
  1.157214   0.386335   0.000000 
  1.150840   0.404928   0.000000 
  1.144168   0.423415   0.000000 
  1.137198   0.441793   0.000000 
  1.129933   0.460056   0.000000 
  1.122375   0.478199   0.000000 
  1.114525   0.496219   0.000000 
  1.106387   0.514109   0.000000 
  1.097961   0.531867   0.000000 
  1.089250   0.549486   0.000000 
  1.080256   0.566962   0.000000 
  1.070982   0.584292   0.000000 
  1.061430   0.601469   0.000000 
  1.051603   0.618491   0.000000 
  1.041503   0.635352   0.000000 
  1.031132   0.652048   0.000000 
  1.020494   0.668575   0.000000 
  1.009590   0.684929   0.000000 
  0.998425   0.701104   0.000000 
  0.987001   0.717098   0.000000 
  0.975320   0.732906   0.000000 
  0.963386   0.748523   0.000000 
  0.951203   0.763946   0.000000 
  0.938772   0.779171   0.000000 
  0.926098   0.794193   0.000000 
  0.913183   0.809010   0.000000 
  0.900031   0.823616   0.000000 
  0.886646   0.838009   0.000000 
  0.873031   0.852184   0.000000 
  0.859189   0.866138   0.000000 
  0.845124   0.879867   0.000000 
  0.830839   0.893368   0.000000 
  0.816339   0.906637   0.000000 
  0.801627   0.919670   0.000000 
  0.786707   0.932465   0.000000 
  0.771583   0.945018   0.000000 
  0.756259   0.957326   0.000000 
  0.740738   0.969385   0.000000 
  0.725025   0.981192   0.000000 
  0.709124   0.992745   0.000000 
  0.693039   1.004040   0.000000 
  0.676774   1.015075   0.000000 
  0.660333   1.025846   0.000000 
  0.643721   1.036351   0.000000 
  0.626942   1.046587   0.000000 
  0.610000   1.056551   0.000000 
  0.592900   1.066241   0.000000 
  0.575646   1.075654   0.000000 
  0.558242   1.084788   0.000000 
  0.540694   1.093641   0.000000 
  0.523005   1.102210   0.000000 
  0.505180   1.110492   0.000000 
  0.487225   1.118486   0.000000 
  0.469143   1.126191   0.000000 
  0.450939   1.133602   0.000000 
  0.432618   1.140720   0.000000 
  0.414185   1.147541   0.000000 
  0.395644   1.154065   0.000000 
  0.377001   1.160289   0.000000 
  0.358260   1.166212   0.000000 
  0.339425   1.171832   0.000000 
  0.320503   1.177148   0.000000 
  0.301498   1.182159   0.000000 
  0.282414   1.186862   0.000000 
  0.263257   1.191258   0.000000 
  0.244031   1.195345   0.000000 
  0.224743   1.199121   0.000000 
  0.205396   1.202586   0.000000 
  0.185995   1.205739   0.000000 
  0.166547   1.208579   0.000000 
  0.147055   1.211105   0.000000 
  0.127525   1.213317   0.000000 
  0.107962   1.215214   0.000000 
  0.088370   1.216795   0.000000 
  0.068756   1.218061   0.000000 
  0.049124   1.219011   0.000000 
  0.029480   1.219644   0.000000 
  0.009827   1.219960   0.000000 
 -0.009827   1.219960   0.000000 
 -0.029480   1.219644   0.000000 
 -0.049124   1.219011   0.000000 
 -0.068756   1.218061   0.000000 
 -0.088370   1.216795   0.000000 
 -0.107962   1.215214   0.000000 
 -0.127525   1.213317   0.000000 
 -0.147055   1.211105   0.000000 
 -0.166547   1.208579   0.000000 
 -0.185995   1.205739   0.000000 
 -0.205396   1.202586   0.000000 
 -0.224743   1.199121   0.000000 
 -0.244031   1.195345   0.000000 
 -0.263257   1.191258   0.000000 
 -0.282414   1.186862   0.000000 
 -0.301498   1.182159   0.000000 
 -0.320503   1.177148   0.000000 
 -0.339425   1.171832   0.000000 
 -0.358260   1.166212   0.000000 
 -0.377001   1.160289   0.000000 
 -0.395644   1.154065   0.000000 
 -0.414185   1.147541   0.000000 
 -0.432618   1.140720   0.000000 
 -0.450939   1.133602   0.000000 
 -0.469143   1.126191   0.000000 
 -0.487225   1.118486   0.000000 
 -0.505180   1.110492   0.000000 
 -0.523005   1.102210   0.000000 
 -0.540694   1.093641   0.000000 
 -0.558242   1.084788   0.000000 
 -0.575646   1.075654   0.000000 
 -0.592900   1.066241   0.000000 
 -0.610000   1.056551   0.000000 
 -0.626942   1.046587   0.000000 
 -0.643721   1.036351   0.000000 
 -0.660333   1.025846   0.000000 
 -0.676774   1.015075   0.000000 
 -0.693039   1.004040   0.000000 
 -0.709124   0.992745   0.000000 
 -0.725025   0.981192   0.000000 
 -0.740738   0.969385   0.000000 
 -0.756259   0.957326   0.000000 
 -0.771583   0.945018   0.000000 
 -0.786707   0.932465   0.000000 
 -0.801627   0.919670   0.000000 
 -0.816339   0.906637   0.000000 
 -0.830839   0.893368   0.000000 
 -0.845124   0.879867   0.000000 
 -0.859189   0.866138   0.000000 
 -0.873031   0.852184   0.000000 
 -0.886646   0.838009   0.000000 
 -0.900031   0.823616   0.000000 
 -0.913183   0.809010   0.000000 
 -0.926098   0.794193   0.000000 
 -0.938772   0.779171   0.000000 
 -0.951203   0.763946   0.000000 
 -0.963386   0.748523   0.000000 
 -0.975320   0.732906   0.000000 
 -0.987001   0.717098   0.000000 
 -0.998425   0.701104   0.000000 
 -1.009590   0.684929   0.000000 
 -1.020494   0.668575   0.000000 
 -1.031132   0.652048   0.000000 
 -1.041503   0.635352   0.000000 
 -1.051603   0.618491   0.000000 
 -1.061430   0.601469   0.000000 
 -1.070982   0.584292   0.000000 
 -1.080256   0.566962   0.000000 
 -1.089250   0.549486   0.000000 
 -1.097961   0.531867   0.000000 
 -1.106387   0.514109   0.000000 
 -1.114525   0.496219   0.000000 
 -1.122375   0.478199   0.000000 
 -1.129933   0.460056   0.000000 
 -1.137198   0.441793   0.000000 
 -1.144168   0.423415   0.000000 
 -1.150840   0.404928   0.000000 
 -1.157214   0.386335   0.000000 
 -1.163288   0.367642   0.000000 
 -1.169060   0.348854   0.000000 
 -1.174528   0.329975   0.000000 
 -1.179692   0.311010   0.000000 
 -1.184549   0.291965   0.000000 
 -1.189099   0.272844   0.000000 
 -1.193340   0.253652   0.000000 
 -1.197272   0.234395   0.000000 
 -1.200892   0.215076   0.000000 
 -1.204201   0.195702   0.000000 
 -1.207198   0.176277   0.000000 
 -1.209881   0.156806   0.000000 
 -1.212250   0.137294   0.000000 
 -1.214305   0.117747   0.000000 
 -1.216044   0.098169   0.000000 
 -1.217468   0.078566   0.000000 
 -1.218575   0.058942   0.000000 
 -1.219367   0.039303   0.000000 
 -1.219842   0.019654   0.000000 
 -1.220000   0.000000   0.000000 
 -1.219842  -0.019654   0.000000 
 -1.219367  -0.039303   0.000000 
 -1.218575  -0.058942   0.000000 
 -1.217468  -0.078566   0.000000 
 -1.216044  -0.098169   0.000000 
 -1.214305  -0.117747   0.000000 
 -1.212250  -0.137294   0.000000 
 -1.209881  -0.156806   0.000000 
 -1.207198  -0.176277   0.000000 
 -1.204201  -0.195702   0.000000 
 -1.200892  -0.215076   0.000000 
 -1.197272  -0.234395   0.000000 
 -1.193340  -0.253652   0.000000 
 -1.189099  -0.272844   0.000000 
 -1.184549  -0.291965   0.000000 
 -1.179692  -0.311010   0.000000 
 -1.174528  -0.329975   0.000000 
 -1.169060  -0.348854   0.000000 
 -1.163288  -0.367642   0.000000 
 -1.157214  -0.386335   0.000000 
 -1.150840  -0.404928   0.000000 
 -1.144168  -0.423415   0.000000 
 -1.137198  -0.441793   0.000000 
 -1.129933  -0.460056   0.000000 
 -1.122375  -0.478199   0.000000 
 -1.114525  -0.496219   0.000000 
 -1.106387  -0.514109   0.000000 
 -1.097961  -0.531867   0.000000 
 -1.089250  -0.549486   0.000000 
 -1.080256  -0.566962   0.000000 
 -1.070982  -0.584292   0.000000 
 -1.061430  -0.601469   0.000000 
 -1.051603  -0.618491   0.000000 
 -1.041503  -0.635352   0.000000 
 -1.031132  -0.652048   0.000000 
 -1.020494  -0.668575   0.000000 
 -1.009590  -0.684929   0.000000 
 -0.998425  -0.701104   0.000000 
 -0.987001  -0.717098   0.000000 
 -0.975320  -0.732906   0.000000 
 -0.963386  -0.748523   0.000000 
 -0.951203  -0.763946   0.000000 
 -0.938772  -0.779171   0.000000 
 -0.926098  -0.794193   0.000000 
 -0.913183  -0.809010   0.000000 
 -0.900031  -0.823616   0.000000 
 -0.886646  -0.838009   0.000000 
 -0.873031  -0.852184   0.000000 
 -0.859189  -0.866138   0.000000 
 -0.845124  -0.879867   0.000000 
 -0.830839  -0.893368   0.000000 
 -0.816339  -0.906637   0.000000 
 -0.801627  -0.919670   0.000000 
 -0.786707  -0.932465   0.000000 
 -0.771583  -0.945018   0.000000 
 -0.756259  -0.957326   0.000000 
 -0.740738  -0.969385   0.000000 
 -0.725025  -0.981192   0.000000 
 -0.709124  -0.992745   0.000000 
 -0.693039  -1.004040   0.000000 
 -0.676774  -1.015075   0.000000 
 -0.660333  -1.025846   0.000000 
 -0.643721  -1.036351   0.000000 
 -0.626942  -1.046587   0.000000 
 -0.610000  -1.056551   0.000000 
 -0.592900  -1.066241   0.000000 
 -0.575646  -1.075654   0.000000 
 -0.558242  -1.084788   0.000000 
 -0.540694  -1.093641   0.000000 
 -0.523005  -1.102210   0.000000 
 -0.505180  -1.110492   0.000000 
 -0.487225  -1.118486   0.000000 
 -0.469143  -1.126191   0.000000 
 -0.450939  -1.133602   0.000000 
 -0.432618  -1.140720   0.000000 
 -0.414185  -1.147541   0.000000 
 -0.395644  -1.154065   0.000000 
 -0.377001  -1.160289   0.000000 
 -0.358260  -1.166212   0.000000 
 -0.339425  -1.171832   0.000000 
 -0.320503  -1.177148   0.000000 
 -0.301498  -1.182159   0.000000 
 -0.282414  -1.186862   0.000000 
 -0.263257  -1.191258   0.000000 
 -0.244031  -1.195345   0.000000 
 -0.224743  -1.199121   0.000000 
 -0.205396  -1.202586   0.000000 
 -0.185995  -1.205739   0.000000 
 -0.166547  -1.208579   0.000000 
 -0.147055  -1.211105   0.000000 
 -0.127525  -1.213317   0.000000 
[...]
<CellData Scalars='scalars'>
<DataArray type='Float32' Name='p' Format='ascii'> 
-18029.099738
-18029.099874
-18029.082730
-18029.032708
-18028.955083
-18028.856618
-18028.750901
-18028.644740
-18028.542013
-18028.441832
-18028.343663
-18028.242016
-18028.134116
-18028.014665
-18027.880435
-18027.727924
-18027.555348
-18027.363103
-18027.154556
-18026.935572
-18026.715429
-18026.504927
-18026.313046
-18026.147768
-18026.014618
-18025.915620
-18025.851807
-18025.822658
-18025.828194
-18025.868576
-18025.943888
-18026.054094
-18026.198586
-18026.373658
-18026.573343
-18026.787632
-18027.008809
-18027.225769
-18027.429383
-18027.615602
-18027.782198
-18027.927990
-18028.056820
-18028.172008
-18028.278009
-18028.377895
-18028.476711
-18028.577483
-18028.681393
-18028.787213
-18028.890645
-18028.981594
-18029.049113
-18029.084504
-18029.088460
-18029.081457
-18029.085186
-18029.089335
-18029.067724
-18029.012926
-18028.930208
-18028.830709
-18028.724071
-18028.618661
-18028.516934
-18028.417981
-18028.319209
-18028.216164
-18028.105114
-18027.983765
-18027.845704
-18027.687724
-18027.509554
-18027.311853
-18027.099100
-18026.878706
-18026.659063
-18026.451517
-18026.265366
-18026.107489
-18025.982274
-18025.892189
-18025.837244
-18025.817462
-18025.832355
-18025.882468
-18025.967756
-18026.088310
-18026.241719
-18026.424732
-18026.630119
-18026.848284
-18027.069586
-18027.284159
-18027.484089
-18027.664811
-18027.825121
-18027.966587
-18028.091199
-18028.202715
-18028.306152
-18028.405759
-18028.504439
-18028.605609
-18028.710707
-18028.817317
-18028.917918
-18029.004127
-18029.062994
-18029.089006
-18029.086914
-18029.081639
-18029.088187
-18029.087187
-18029.056082
-18028.992270
-18028.904071
-18028.801401
-18028.694785
-18028.589989
-18028.489308
-18028.391037
-18028.291447
-18028.186014
-18028.073691
-18027.946408
-18027.802525
-18027.638635
-18027.455098
-18027.253054
-18027.037299
-18026.815860
-18026.598468
-18026.395855
-18026.216731
-18026.068756
-18025.942995
-18025.870111
-18025.832003
-18025.821393
-18025.845961
-18025.905752
-18026.000794
-18026.130738
-18026.293299
-18026.483417
-18026.693647
-18026.913949
-18027.133683
-18027.344368
-18027.539113
-18027.714191
-18027.869214
-18028.005366
-18028.126260
-18028.234899
-18028.336308
-18028.435170
-18028.534578
-18028.636896
-18028.742397
-18028.848172
-18028.945578
-18029.025205
-18029.075363
-18029.091689
-18029.085641
-18029.083503
-18029.091007
-18029.082435
-18029.041303
-18028.969680
-18028.875525
-18028.770455
-18028.664340
-18028.561408
-18028.461568
-18028.362956
-18028.262184
-18028.155864
-18028.038880
-18027.907777
-18027.758779
-18027.589351
-18027.400233
-18027.193573
-18026.974942
-18026.753577
-18026.539647
-18026.343059
-18026.171927
-18026.032160
-18025.926670
-18025.856593
-18025.821737
-18025.821805
-18025.856866
-18025.927079
-18026.032967
-18026.172688
-18026.343878
-18026.540829
-18026.755697
-18026.977210
-18027.193005
-18027.394287
-18027.586822
-18027.756539
-18027.905998
-18028.038045
-18028.154915
-18028.261525
-18028.362331
-18028.461091
-18028.560692
-18028.664027
-18028.770205
-18028.874251
-18028.968429
-18029.039984
-18029.080843
-18029.089097
-18029.081366
-18029.083139
-18029.089279
-18029.072794
-18029.022581
-18028.943578
-18028.845807
-18028.740624
-18028.634713
-18028.531849
-18028.433078
-18028.334512
-18028.232421
-18028.123372
-18028.002523
-18027.866554
-18027.710871
-18027.535543
-18027.341866
-18027.131159
-18026.911266
-18026.691032
-18026.480984
-18026.290877
-18026.128214
-18025.997906
-18025.902460
-18025.842360
-18025.817417
-18025.827376
-18025.872293
-18025.952522
-18026.067914
-18026.216912
-18026.396015
-18026.598946
-18026.815746
-18027.037004
-18027.252941
-18027.454939
-18027.638907
-18027.801957
-18027.946385
-18028.072918
-18028.186673
-18028.291356
-18028.390946
-18028.489353
-18028.590375
-18028.695808
-18028.802151
-18028.903082
-18028.991462
-18029.055445
-18029.086687
-18029.087823
-18029.081366
-18029.086641
-18029.088915
-18029.063131
-18029.004059
-18028.918112
-18028.816964
-18028.711406
-18028.606212
-18028.504553
-18028.406208
-18028.306778
-18028.202913
-18028.091006
-18027.966621
-18027.825735
-18027.665499
-18027.484577
-18027.285182
-18027.071053
-18026.849966
-18026.631324
-18026.425414
-18026.242128
-18026.087969
-18025.966824
-18025.880559
-18025.829559
-18025.813472
-18025.836061
-18025.890881
-18025.980273
-18026.104891
-18026.262438
-18026.448839
-18026.655977
-18026.875063
-18027.095877
-18027.308693
-18027.506439
-18027.685064
-18027.842793
-18027.981127
-18028.104546
-18028.214890
-18028.317675
-18028.416514
-18028.515399
-18028.617626
-18028.722934
-18028.829004
-18028.928571
-18029.011653
-18029.067155
-18029.089097
-18029.085004
-18029.080911
-18029.088096
-18029.084072
-18029.049193
-18028.981981
-18028.890736
-18028.787622
-18028.681620
-18028.577756
-18028.477211
-18028.378258
-18028.278237
-18028.173054
-18028.057798
-18027.929104
-18027.782676
-18027.615965
-18027.429246
-18027.224792
-18027.008036
-18026.783471
-18026.568102
-18026.368457
-18026.192606
-18026.047513
-18025.936831
-18025.861567
-18025.821760
-18025.817303
-18025.847612
-18025.913414
-18026.015141
-18026.151520
-18026.319367
-18026.513499
-18026.726889
-18026.948510
-18027.168153
-18027.377428
-18027.569149
-18027.740441
-18027.892531
-18028.026307
-18028.144621
-18028.252975
-18028.353884
-18028.452632
-18028.552972
-18028.655290
-18028.760917
-18028.865969
-18028.960449
-18029.033367
-18029.074818
-18029.084640
-18029.065996
-53739.176656
-53739.245868
-53739.292889
-53739.311954
-53739.300853
-53739.270625
-53739.227155
-53739.175530
-53739.116129
-53739.051384
-53738.982820
-53738.911936
-53738.839108
-53738.764200
-53738.684164
-53738.597512
-53738.500787
-53738.392501
-53738.270185
-53738.134557
-53737.988333
-53737.837970
-53737.688404
-53737.548501
-53737.427129
-53737.330757
-53737.265489
-53737.235055
-53737.241200
-53737.283540
-53737.359670
-53737.465348
-53737.594259
-53737.738722
-53737.889482
-53738.038932
-53738.182004
-53738.313272
-53738.431194
-53738.535280
-53738.628185
-53738.711915
-53738.790098
-53738.863903
-53738.936447
-53739.006103
-53739.073815
-53739.136365
-53739.193550
-53739.241707
-53739.280418
-53739.304224
-53739.304775
-53739.274563
-53739.218492
-53739.175883
-53739.196301
-53739.253690
-53739.296254
-53739.307873
-53739.292366
-53739.258738
-53739.214241
-53739.160558
-53739.099872
-53739.034297
-53738.965539
-53738.893621
-53738.825522
-53738.745282
-53738.664747
-53738.576116
-53738.476959
-53738.364591
-53738.238648
-53738.100007
-53737.951953
-53737.800329
-53737.652803
-53737.516288
-53737.400424
-53737.311680
-53737.255041
-53737.233907
-53737.249937
-53737.301744
-53737.386804
-53737.499161
-53737.632834
-53737.779649
-53737.931353
-53738.079760
-53738.220788
-53738.347901
-53738.462339
-53738.562940
-53738.653116
-53738.735113
-53738.811613
-53738.884515
-53738.956484
-53739.025918
-53739.092493
-53739.153441
-53739.207340
-53739.253889
-53739.289319
-53739.307623
-53739.300165
-53739.261216
-53739.203895
-53739.174518
-53739.211489
-53739.268742
-53739.303257
-53739.306372
-53739.284976
-53739.247807
-53739.199871
-53739.144232
-53739.082705
-53739.015425
-53738.945940
-53738.873964
-53738.800784
-53738.722625
-53738.640156
-53738.548490
-53738.445752
-53738.329996
-53738.200268
-53738.057613
-53737.908206
-53737.756991
-53737.611552
-53737.475531
-53737.366778
-53737.290955
-53737.248550
-53737.237815
-53737.264159
-53737.325499
-53737.418568
-53737.537939
-53737.675842
-53737.825039
-53737.976566
-53738.123268
-53738.260033
-53738.383986
-53738.494069
-53738.591487
-53738.678616
-53738.758834
-53738.834231
-53738.907104
-53738.978181
-53739.046757
-53739.111308
-53739.171221
-53739.222722
-53739.266264
-53739.297550
-53739.309351
-53739.293912
-53739.246505
-53739.191480
-53739.181431
-53739.229224
-53739.283180
-53739.309033
-53739.301484
-53739.275108
-53739.234727
-53739.184887
-53739.127134
-53739.063833
-53738.995689
-53738.925271
-53738.853353
-53738.777819
-53738.700274
-53738.615827
-53738.520853
-53738.414988
-53738.295060
-53738.161773
-53738.017175
-53737.866472
-53737.715950
-53737.573285
-53737.447899
-53737.346491
-53737.275493
-53737.239023
-53737.239125
-53737.275869
-53737.347002
-53737.449025
-53737.574569
-53737.717383
-53737.867961
-53738.019494
-53738.164070
-53738.291649
-53738.415318
-53738.519398
-53738.614281
-53738.698921
-53738.777518
-53738.852313
-53738.925146
-53738.994876
-53739.062298
-53739.126571
-53739.184330
-53739.233800
-53739.273960
-53739.301336
-53739.306304
-53739.281157
-53739.227667
-53739.178520
-53739.188479
-53739.243640
-53739.291093
-53739.307515
-53739.295851
-53739.264251
-53739.220903
-53739.168720
-53739.109239
-53739.044586
-53738.975657
-53738.904990
-53738.832162
-53738.756594
-53738.676638
-53738.589054
-53738.491738
-53738.381530
-53738.257679
-53738.120857
-53737.974264
-53737.822594
-53737.673522
-53737.535194
-53737.415817
-53737.322392
-53737.260856
-53737.234424
-53737.244946
-53737.291637
-53737.371826
-53737.481056
-53737.612097
-53737.757003
-53737.908900
-53738.058352
-53738.200188
-53738.329530
-53738.445649
-53738.547888
-53738.638940
-53738.721851
-53738.798954
-53738.873294
-53738.945235
-53739.014004
-53739.082625
-53739.143425
-53739.199882
-53739.249779
-53739.283658
-53739.305531
-53739.302939
-53739.268697
-53739.212080
-53739.174291
-53739.202895
-53739.260488
-53739.299369
-53739.307270
-53739.288893
-53739.253121
-53739.208022
-53739.152270
-53739.091823
-53739.025884
-53738.955916
-53738.884316
-53738.811602
-53738.735005
-53738.652792
-53738.563639
-53738.462054
-53738.349129
-53738.221197
-53738.080999
-53737.932046
-53737.780934
-53737.633857
-53737.499934
-53737.386952
-53737.302176
-53737.251267
-53737.230292
-53737.252830
-53737.309293
-53737.398474
-53737.514060
-53737.649847
-53737.797771
-53737.949543
-53738.097120
-53738.235999
-53738.361652
-53738.473741
-53738.573874
-53738.662621
-53738.743907
-53738.820179
-53738.892751
-53738.964129
-53739.033751
-53739.098416
-53739.159785
-53739.213115
-53739.257783
-53739.292304
-53739.308083
-53739.295504
-53739.253610
-53739.196915
-53739.175178
-53739.218606
-53739.274506
-53739.304155
-53739.303655
-53739.279667
-53739.241901
-53739.193152
-53739.136831
-53739.073644
-53739.006478
-53738.936606
-53738.865051
-53738.790939
-53738.712961
-53738.628981
-53738.536565
-53738.432132
-53738.313932
-53738.182703
-53738.033267
-53737.883258
-53737.727492
-53737.593434
-53737.465625
-53737.360111
-53737.284793
-53737.243167
-53737.238454
-53737.270184
-53737.337294
-53737.435826
-53737.558278
-53737.698886
-53737.849339
-53738.000702
-53738.145573
-53738.280531
-53738.402596
-53738.510633
-53738.606005
-53738.692509
-53738.771362
-53738.846896
-53738.918564
-53738.989709
-53739.057421
-53739.121972
-53739.179066
-53739.229963
-53739.270629
-53739.299187
-53739.304781
-53739.283953
-53739.229179
-53739.192799
-89449.589905
-89449.656025
-89449.750317
-89449.791562
-89449.804062
-89449.796758
-89449.792053
-89449.786606
-89449.785142
-89449.779017
-89449.773867
-89449.763487
-89449.754319
-89449.741392
-89449.727415
-89449.703341
-89449.670736
-89449.623829
-89449.561824
-89449.483755
-89449.395387
-89449.296104
-89449.194394
-89449.097300
-89449.008311
-89448.935978
-89448.886291
-89448.862553
-89448.867581
-89448.900479
-89448.958447
-89449.037110
-89449.129105
-89449.229689
-89449.330399
-89449.425690
-89449.512681
-89449.584536
-89449.641101
-89449.681639
-89449.710111
-89449.730342
-89449.743990
-89449.755728
-89449.766187
-89449.773793
-89449.779432
-89449.782467
-89449.786719
-89449.791210
-89449.798185
-89449.799955
-89449.780398
-89449.719553
-89449.628740
-89449.569077
-89449.596180
-89449.682923
-89449.761253
-89449.795628
-89449.800089
-89449.793904
-89449.788629
-89449.785446
-89449.781944
-89449.776624
-89449.769894
-89449.761344
-89449.753523
-89449.737220
-89449.721440
-89449.695815
-89449.660743
-89449.610346
-89449.544839
-89449.463889
-89449.371279
-89449.271849
-89449.170761
-89449.074639
-89448.989837
-89448.922932
-89448.879504
-89448.863537
-89448.875582
-89448.915639
-89448.979304
-89449.062295
-89449.156917
-89449.257337
-89449.358074
-89449.451866
-89449.534210
-89449.602228
-89449.654638
-89449.691779
-89449.718212
-89449.735646
-89449.749299
-89449.759838
-89449.769280
-89449.776630
-89449.781194
-89449.785452
-89449.788618
-89449.793586
-89449.800112
-89449.798247
-89449.768893
-89449.695588
-89449.606003
-89449.567804
-89449.617644
-89449.708867
-89449.774498
-89449.799452
-89449.799358
-89449.793474
-89449.786674
-89449.784321
-89449.781274
-89449.775169
-89449.767881
-89449.757877
-89449.746986
-89449.733071
-89449.714073
-89449.687198
-89449.648794
-89449.592065
-89449.522545
-89449.438093
-89449.343005
-89449.242489
-89449.141029
-89449.049989
-89448.968151
-89448.913377
-89448.873302
-89448.866999
-89448.886678
-89448.934182
-89449.003752
-89449.090558
-89449.187777
-89449.288754
-89449.387639
-89449.478423
-89449.557061
-89449.620373
-89449.668087
-89449.701989
-89449.725044
-89449.741222
-89449.754250
-89449.764164
-89449.772850
-89449.779853
-89449.784275
-89449.786947
-89449.791017
-89449.796269
-89449.802579
-89449.794837
-89449.753364
-89449.670395
-89449.588586
-89449.574261
-89449.643292
-89449.732968
-89449.786446
-89449.800907
-89449.797349
-89449.790471
-89449.786515
-89449.783491
-89449.779739
-89449.773645
-89449.765233
-89449.755274
-89449.743268
-89449.728534
-89449.707446
-89449.677455
-89449.633811
-89449.575296
-89449.500319
-89449.412781
-89449.315465
-89449.214551
-89449.115552
-89449.024927
-89448.949626
-89448.895778
-89448.867635
-89448.867647
-89448.896074
-89448.950371
-89449.025847
-89449.116854
-89449.216080
-89449.317568
-89449.414361
-89449.502661
-89449.575478
-89449.633333
-89449.677341
-89449.707224
-89449.727881
-89449.742802
-89449.754563
-89449.763897
-89449.772696
-89449.778437
-89449.782735
-89449.785810
-89449.789726
-89449.796474
-89449.799850
-89449.785293
-89449.731570
-89449.642007
-89449.572658
-89449.585539
-89449.667894
-89449.750612
-89449.792392
-89449.799822
-89449.794535
-89449.788464
-89449.784878
-89449.781808
-89449.777477
-89449.770906
-89449.761958
-89449.751636
-89449.739221
-89449.722941
-89449.699681
-89449.666029
-89449.618156
-89449.554474
-89449.476337
-89449.385177
-89449.286372
-89449.185282
-89449.088097
-89449.001075
-89448.931362
-89448.884154
-89448.863827
-89448.872018
-89448.907829
-89448.968549
-89449.048448
-89449.142638
-89449.242432
-89449.343329
-89449.437849
-89449.522483
-89449.592679
-89449.647112
-89449.686584
-89449.713926
-89449.732889
-89449.746577
-89449.757343
-89449.766995
-89449.775237
-89449.780904
-89449.784616
-89449.787453
-89449.792529
-89449.798884
-89449.799077
-89449.775373
-89449.709276
-89449.618054
-89449.567486
-89449.605230
-89449.694474
-89449.768529
-89449.797144
-89449.799691
-89449.792966
-89449.787913
-89449.784491
-89449.780728
-89449.776146
-89449.768211
-89449.759628
-89449.748413
-89449.735020
-89449.717285
-89449.691222
-89449.653922
-89449.602058
-89449.534312
-89449.451809
-89449.358347
-89449.258360
-89449.157952
-89449.063216
-89448.981009
-89448.917629
-89448.879550
-89448.861416
-89448.871779
-89448.919769
-89448.986387
-89449.072016
-89449.168638
-89449.269643
-89449.369290
-89449.461757
-89449.542997
-89449.607310
-89449.662119
-89449.694266
-89449.720033
-89449.736245
-89449.748864
-89449.760554
-89449.769746
-89449.778193
-89449.783195
-89449.784855
-89449.787708
-89449.793671
-89449.799660
-89449.795362
-89449.761077
-89449.683583
-89449.596180
-89449.569032
-89449.627148
-89449.718689
-89449.780228
-89449.799839
-89449.797900
-89449.791068
-89449.786537
-89449.783604
-89449.780126
-89449.774146
-89449.766176
-89449.756797
-89449.745428
-89449.731240
-89449.711470
-89449.682696
-89449.641263
-89449.585059
-89449.511854
-89449.428711
-89449.330626
-89449.235378
-89449.137002
-89449.040041
-89448.962194
-89448.904453
-89448.872643
-89448.868573
-89448.893516
-89448.943606
-89449.016343
-89449.105474
-89449.203131
-89449.303891
-89449.401958
-89449.491270
-89449.567020
-89449.627785
-89449.673158
-89449.705740
-89449.726147
-89449.743365
-89449.753648
-89449.764687
-89449.771770
-89449.780114
-89449.782521
-89449.786783
-89449.788729
-89449.797434
-89449.799088
-89449.789607
-89449.735719
-89449.654615
-89449.571624
-125160.183131
-125160.243022
-125160.296147
-125160.342623
-125160.359698
-125160.376228
-125160.387844
-125160.409510
-125160.430335
-125160.457824
-125160.479917
-125160.503421
-125160.517814
-125160.528654
-125160.524328
-125160.513392
-125160.488915
-125160.458788
-125160.424477
-125160.396686
-125160.373619
-125160.359568
-125160.343390
-125160.324848
-125160.301673
-125160.278765
-125160.259782
-125160.250661
-125160.252668
-125160.265785
-125160.286274
-125160.309959
-125160.331436
-125160.348256
-125160.362452
-125160.379267
-125160.402931
-125160.433660
-125160.466877
-125160.495816
-125160.515671
-125160.524732
-125160.523027
-125160.511823
-125160.493690
-125160.470850
-125160.445918
-125160.421044
-125160.399114
-125160.381793
-125160.368306
-125160.353963
-125160.327173
-125160.278913
-125160.215430
-125160.183597
-125160.196103
-125160.252560
-125160.310120
-125160.345044
-125160.363046
-125160.375870
-125160.391303
-125160.411392
-125160.435698
-125160.460482
-125160.485220
-125160.505547
-125160.522077
-125160.525499
-125160.521259
-125160.505678
-125160.480405
-125160.448327
-125160.415961
-125160.388652
-125160.368782
-125160.353980
-125160.338928
-125160.319959
-125160.296648
-125160.274479
-125160.258051
-125160.251542
-125160.256908
-125160.271506
-125160.293135
-125160.316037
-125160.336171
-125160.352133
-125160.366451
-125160.384982
-125160.411062
-125160.443758
-125160.475818
-125160.502762
-125160.519633
-125160.525795
-125160.520849
-125160.508003
-125160.487818
-125160.464495
-125160.439035
-125160.415143
-125160.394032
-125160.378218
-125160.365161
-125160.348921
-125160.316156
-125160.262041
-125160.201310
-125160.184052
-125160.208700
-125160.271159
-125160.322204
-125160.352275
-125160.366997
-125160.380558
-125160.396340
-125160.418429
-125160.442707
-125160.468218
-125160.491353
-125160.510044
-125160.522140
-125160.525340
-125160.517564
-125160.499010
-125160.471100
-125160.438586
-125160.406833
-125160.381577
-125160.363928
-125160.349347
-125160.334562
-125160.312828
-125160.292100
-125160.268169
-125160.258378
-125160.253219
-125160.262377
-125160.279504
-125160.302287
-125160.324433
-125160.343254
-125160.357800
-125160.372738
-125160.393520
-125160.421726
-125160.454650
-125160.485743
-125160.510049
-125160.524038
-125160.526829
-125160.519565
-125160.504479
-125160.483344
-125160.458924
-125160.433583
-125160.410153
-125160.390365
-125160.375812
-125160.362518
-125160.342952
-125160.304151
-125160.244534
-125160.191601
-125160.186917
-125160.224502
-125160.289690
-125160.337132
-125160.357516
-125160.369873
-125160.384277
-125160.402274
-125160.424864
-125160.450500
-125160.474897
-125160.496702
-125160.514426
-125160.523783
-125160.525067
-125160.513846
-125160.491689
-125160.462392
-125160.429110
-125160.399048
-125160.376001
-125160.359880
-125160.345985
-125160.328390
-125160.306845
-125160.283994
-125160.264665
-125160.253674
-125160.253820
-125160.265037
-125160.284423
-125160.308090
-125160.329765
-125160.347218
-125160.361316
-125160.377439
-125160.398866
-125160.429445
-125160.461914
-125160.491359
-125160.512687
-125160.523601
-125160.523680
-125160.513284
-125160.496253
-125160.474272
-125160.449352
-125160.424341
-125160.401592
-125160.383629
-125160.369385
-125160.355998
-125160.332209
-125160.286950
-125160.224002
-125160.184257
-125160.190692
-125160.241441
-125160.301945
-125160.340247
-125160.360147
-125160.372916
-125160.387995
-125160.407356
-125160.430980
-125160.456298
-125160.480786
-125160.501875