<VTKFile type='UnstructuredGrid' version='0.1' byte_order='BigEndian'> 
<UnstructuredGrid> 
<Piece NumberOfPoints='   121 ' NumberOfCells='   100 '> 
<Points> 
<DataArray type='Float32' NumberOfComponents='3' Format='ascii'> 
  0.000000   0.000000   0.000000 
  0.100000   0.000000   0.000000 
  0.200000   0.000000   0.000000 
  0.300000   0.000000   0.000000 
  0.400000   0.000000   0.000000 
  0.500000   0.000000   0.000000 
  0.600000   0.000000   0.000000 
  0.700000   0.000000   0.000000 
  0.800000   0.000000   0.000000 
  0.900000   0.000000   0.000000 
  1.000000   0.000000   0.000000 
  0.000000   0.100000   0.000000 
  0.100000   0.100000   0.000000 
  0.200000   0.100000   0.000000 
  0.300000   0.100000   0.000000 
  0.400000   0.100000   0.000000 
  0.500000   0.100000   0.000000 
  0.600000   0.100000   0.000000 
  0.700000   0.100000   0.000000 
  0.800000   0.100000   0.000000 
  0.900000   0.100000   0.000000 
  1.000000   0.100000   0.000000 
  0.000000   0.200000   0.000000 
  0.100000   0.200000   0.000000 
  0.200000   0.200000   0.000000 
  0.300000   0.200000   0.000000 
  0.400000   0.200000   0.000000 
  0.500000   0.200000   0.000000 
  0.600000   0.200000   0.000000 
  0.700000   0.200000   0.000000 
  0.800000   0.200000   0.000000 
  0.900000   0.200000   0.000000 
  1.000000   0.200000   0.000000 
  0.000000   0.300000   0.000000 
  0.100000   0.300000   0.000000 
  0.200000   0.300000   0.000000 
  0.300000   0.300000   0.000000 
  0.400000   0.300000   0.000000 
  0.500000   0.300000   0.000000 
  0.600000   0.300000   0.000000 
  0.700000   0.300000   0.000000 
  0.800000   0.300000   0.000000 
  0.900000   0.300000   0.000000 
  1.000000   0.300000   0.000000 
  0.000000   0.400000   0.000000 
  0.100000   0.400000   0.000000 
  0.200000   0.400000   0.000000 
  0.300000   0.400000   0.000000 
  0.400000   0.400000   0.000000 
  0.500000   0.400000   0.000000 
  0.600000   0.400000   0.000000 
  0.700000   0.400000   0.000000 
  0.800000   0.400000   0.000000 
  0.900000   0.400000   0.000000 
  1.000000   0.400000   0.000000 
  0.000000   0.500000   0.000000 
  0.100000   0.500000   0.000000 
  0.200000   0.500000   0.000000 
  0.300000   0.500000   0.000000 
  0.400000   0.500000   0.000000 
  0.500000   0.500000   0.000000 
  0.600000   0.500000   0.000000 
  0.700000   0.500000   0.000000 
  0.800000   0.500000   0.000000 
  0.900000   0.500000   0.000000 
  1.000000   0.500000   0.000000 
  0.000000   0.600000   0.000000 
  0.100000   0.600000   0.000000 
  0.200000   0.600000   0.000000 
  0.300000   0.600000   0.000000 
  0.400000   0.600000   0.000000 
  0.500000   0.600000   0.000000 
  0.600000   0.600000   0.000000 
  0.700000   0.600000   0.000000 
  0.800000   0.600000   0.000000 
  0.900000   0.600000   0.000000 
  1.000000   0.600000   0.000000 
  0.000000   0.700000   0.000000 
  0.100000   0.700000   0.000000 
  0.200000   0.700000   0.000000 
  0.300000   0.700000   0.000000 
  0.400000   0.700000   0.000000 
  0.500000   0.700000   0.000000 
  0.600000   0.700000   0.000000 
  0.700000   0.700000   0.000000 
  0.800000   0.700000   0.000000 
  0.900000   0.700000   0.000000 
  1.000000   0.700000   0.000000 
  0.000000   0.800000   0.000000 
  0.100000   0.800000   0.000000 
  0.200000   0.800000   0.000000 
  0.300000   0.800000   0.000000 
  0.400000   0.800000   0.000000 
  0.500000   0.800000   0.000000 
  0.600000   0.800000   0.000000 
  0.700000   0.800000   0.000000 
  0.800000   0.800000   0.000000 
  0.900000   0.800000   0.000000 
  1.000000   0.800000   0.000000 
  0.000000   0.900000   0.000000 
  0.100000   0.900000   0.000000 
  0.200000   0.900000   0.000000 
  0.300000   0.900000   0.000000 
  0.400000   0.900000   0.000000 
  0.500000   0.900000   0.000000 
  0.600000   0.900000   0.000000 
  0.700000   0.900000   0.000000 
  0.800000   0.900000   0.000000 
  0.900000   0.900000   0.000000 
  1.000000   0.900000   0.000000 
  0.000000   1.000000   0.000000 
  0.100000   1.000000   0.000000 
  0.200000   1.000000   0.000000 
  0.300000   1.000000   0.000000 
  0.400000   1.000000   0.000000 
  0.500000   1.000000   0.000000 
  0.600000   1.000000   0.000000 
  0.700000   1.000000   0.000000 
  0.800000   1.000000   0.000000 
  0.900000   1.000000   0.000000 
  1.000000   1.000000   0.000000 
</DataArray>
</Points> 
<PointData Scalars='scalars'>
<DataArray type='Float32' NumberOfComponents='3' Name='velocity' Format='ascii'> 
  0.866025   0.500000   0.000000 
  0.866025   0.500000   0.000000 
  0.866025   0.500000   0.000000 
  0.866025   0.500000   0.000000 
  0.866025   0.500000   0.000000 
  0.866025   0.500000   0.000000 
  0.866025   0.500000   0.000000 
  0.866025   0.500000   0.000000 
  0.866025   0.500000   0.000000 
  0.866025   0.500000   0.000000 
  0.866025   0.500000   0.000000 
  0.866025   0.500000   0.000000 
  0.866025   0.500000   0.000000 
  0.866025   0.500000   0.000000 
  0.866025   0.500000   0.000000 
  0.866025   0.500000   0.000000 
  0.866025   0.500000   0.000000 
  0.866025   0.500000   0.000000 
  0.866025   0.500000   0.000000 
  0.866025   0.500000   0.000000 
  0.866025   0.500000   0.000000 
  0.866025   0.500000   0.000000 
  0.866025   0.500000   0.000000 
  0.866025   0.500000   0.000000 
  0.866025   0.500000   0.000000 
  0.866025   0.500000   0.000000 
  0.866025   0.500000   0.000000 
  0.866025   0.500000   0.000000 
  0.866025   0.500000   0.000000 
  0.866025   0.500000   0.000000 
  0.866025   0.500000   0.000000 
  0.866025   0.500000   0.000000 
  0.866025   0.500000   0.000000 
  0.866025   0.500000   0.000000 
  0.866025   0.500000   0.000000 
  0.866025   0.500000   0.000000 
  0.866025   0.500000   0.000000 
  0.866025   0.500000   0.000000 
  0.866025   0.500000   0.000000 
  0.866025   0.500000   0.000000 
  0.866025   0.500000   0.000000 
  0.866025   0.500000   0.000000 
  0.866025   0.500000   0.000000 
  0.866025   0.500000   0.000000 
  0.866025   0.500000   0.000000 
  0.866025   0.500000   0.000000 
  0.866025   0.500000   0.000000 
  0.866025   0.500000   0.000000 
  0.866025   0.500000   0.000000 
  0.866025   0.500000   0.000000 
  0.866025   0.500000   0.000000 
  0.866025   0.500000   0.000000 
  0.866025   0.500000   0.000000 
  0.866025   0.500000   0.000000 
  0.866025   0.500000   0.000000 
  0.866025   0.500000   0.000000 
  0.866025   0.500000   0.000000 
  0.866025   0.500000   0.000000 
  0.866025   0.500000   0.000000 
  0.866025   0.500000   0.000000 
  0.866025   0.500000   0.000000 
  0.866025   0.500000   0.000000 
  0.866025   0.500000   0.000000 
  0.866025   0.500000   0.000000 
  0.866025   0.500000   0.000000 
  0.866025   0.500000   0.000000 
  0.866025   0.500000   0.000000 
  0.866025   0.500000   0.000000 
  0.866025   0.500000   0.000000 
  0.866025   0.500000   0.000000 
  0.866025   0.500000   0.000000 
  0.866025   0.500000   0.000000 
  0.866025   0.500000   0.000000 
  0.866025   0.500000   0.000000 
  0.866025   0.500000   0.000000 
  0.866025   0.500000   0.000000 
  0.866025   0.500000   0.000000 
  0.866025   0.500000   0.000000 
  0.866025   0.500000   0.000000 
  0.866025   0.500000   0.000000 
  0.866025   0.500000   0.000000 
  0.866025   0.500000   0.000000 
  0.866025   0.500000   0.000000 
  0.866025   0.500000   0.000000 
  0.866025   0.500000   0.000000 
  0.866025   0.500000   0.000000 
  0.866025   0.500000   0.000000 
  0.866025   0.500000   0.000000 
  0.866025   0.500000   0.000000 
  0.866025   0.500000   0.000000 
  0.866025   0.500000   0.000000 
  0.866025   0.500000   0.000000 
  0.866025   0.500000   0.000000 
  0.866025   0.500000   0.000000 
  0.866025   0.500000   0.000000 
  0.866025   0.500000   0.000000 
  0.866025   0.500000   0.000000 
  0.866025   0.500000   0.000000 
  0.866025   0.500000   0.000000 
  0.866025   0.500000   0.000000 
  0.866025   0.500000   0.000000 
  0.866025   0.500000   0.000000 
  0.866025   0.500000   0.000000 
  0.866025   0.500000   0.000000 
  0.866025   0.500000   0.000000 
  0.866025   0.500000   0.000000 
  0.866025   0.500000   0.000000 
  0.866025   0.500000   0.000000 
  0.866025   0.500000   0.000000 
  0.866025   0.500000   0.000000 
  0.866025   0.500000   0.000000 
  0.866025   0.500000   0.000000 
  0.866025   0.500000   0.000000 
  0.866025   0.500000   0.000000 
  0.866025   0.500000   0.000000 
  0.866025   0.500000   0.000000 
  0.866025   0.500000   0.000000 
  0.866025   0.500000   0.000000 
  0.866025   0.500000   0.000000 
  0.866025   0.500000   0.000000 
  0.866025   0.500000   0.000000 
</DataArray>
<DataArray type='Float32' Name='temperature' Format='ascii'> 
  0.000000 
  0.000000 
  0.000000 
  0.000000 
  0.000000 
  0.000000 
  0.000000 
  0.000000 
  0.000000 
  0.000000 
  0.000000 
  0.000000 
 -0.117649 
 -0.122225 
 -0.079808 
 -0.033723 
 -0.003399 
  0.008880 
  0.009130 
  0.004676 
  0.000401 
 -0.001643 
  1.000000 
  0.499495 
  0.131010 
 -0.063532 
 -0.117584 
 -0.092989 
 -0.045070 
 -0.006741 
  0.011543 
  0.013563 
  0.007355 
  1.000000 
  1.005598 
  0.750719 
  0.405598 
  0.113255 
 -0.058781 
 -0.113740 
 -0.093963 
 -0.047564 
 -0.007669 
  0.012823 
  1.000000 
  1.020646 
  1.031307 
  0.900276 
  0.637852 
  0.334227 
  0.083255 
 -0.064790 
 -0.111330 
 -0.091184 
 -0.046661 
  1.000000 
  0.999044 
  1.020203 
  1.042935 
  0.987207 
  0.812904 
  0.550227 
  0.272969 
  0.052865 
 -0.072672 
 -0.108701 
  1.000000 
  0.998208 
  0.996980 
  1.013257 
  1.040874 
  1.030707 
  0.931810 
  0.733476 
  0.474050 
  0.219134 
  0.030210 
  1.000000 
  1.000156 
  0.997864 
  0.995388 
  1.005504 
  1.031170 
  1.045305 
  1.002792 
  0.872025 
  0.658048 
  0.412071 
  1.000000 
  1.000199 
  1.000395 
  0.998308 
  0.994902 
  0.999432 
  1.019239 
  1.042835 
  1.037129 
  0.964009 
  0.809658 
  1.000000 
  0.999972 
  1.000263 
  1.000611 
  0.999045 
  0.995384 
  0.995838 
  1.008756 
  1.032819 
  1.045833 
  1.011397 
  1.000000 
  0.999975 
  0.999929 
  1.000259 
  1.000801 
  0.999706 
  0.996023 
  0.994047 
  1.001946 
  1.024851 
  1.037860 
</DataArray>
</PointData>
<Cells>
<DataArray type='Int32' Name='connectivity' Format='ascii'> 
0 1 12 11
1 2 13 12
2 3 14 13
3 4 15 14
4 5 16 15
5 6 17 16
6 7 18 17
7 8 19 18
8 9 20 19
9 10 21 20
11 12 23 22
12 13 24 23
13 14 25 24
14 15 26 25
15 16 27 26
16 17 28 27
17 18 29 28
18 19 30 29
19 20 31 30
20 21 32 31
22 23 34 33
23 24 35 34
24 25 36 35
25 26 37 36
26 27 38 37
27 28 39 38
28 29 40 39
29 30 41 40
30 31 42 41
31 32 43 42
33 34 45 44
34 35 46 45
35 36 47 46
36 37 48 47
37 38 49 48
38 39 50 49
39 40 51 50
40 41 52 51
41 42 53 52
42 43 54 53
44 45 56 55
45 46 57 56
46 47 58 57
47 48 59 58
48 49 60 59
49 50 61 60
50 51 62 61
51 52 63 62
52 53 64 63
53 54 65 64
55 56 67 66
56 57 68 67
57 58 69 68
58 59 70 69
59 60 71 70
60 61 72 71
61 62 73 72
62 63 74 73
63 64 75 74
64 65 76 75
66 67 78 77
67 68 79 78
68 69 80 79
69 70 81 80
70 71 82 81
71 72 83 82
72 73 84 83
73 74 85 84
74 75 86 85
75 76 87 86
77 78 89 88
78 79 90 89
79 80 91 90
80 81 92 91
81 82 93 92
82 83 94 93
83 84 95 94
84 85 96 95
85 86 97 96
86 87 98 97
88 89 100 99
89 90 101 100
90 91 102 101
91 92 103 102
92 93 104 103
93 94 105 104
94 95 106 105
95 96 107 106
96 97 108 107
97 98 109 108
99 100 111 110
100 101 112 111
101 102 113 112
102 103 114 113
103 104 115 114
104 105 116 115
105 106 117 116
106 107 118 117
107 108 119 118
108 109 120 119
</DataArray>
<DataArray type='Int32' Name='offsets' Format='ascii'> 
4 
8 
12 
16 
20 
24 
28 
32 
36 
40 
44 
48 
52 
56 
60 
64 
68 
72 
76 
80 
84 
88 
92 
96 
100 
104 
108 
112 
116 
120 
124 
128 
132 
136 
140 
144 
148 
152 
156 
160 
164 
168 
172 
176 
180 
184 
188 
192 
196 
200 
204 
208 
212 
216 
220 
224 
228 
232 
236 
240 
244 
248 
252 
256 
260 
264 
268 
272 
276 
280 
284 
288 
292 
296 
300 
304 
308 
312 
316 
320 
324 
328 
332 
336 
340 
344 
348 
352 
356 
360 
364 
368 
372 
376 
380 
384 
388 
392 
396 
400 
</DataArray>
<DataArray type='Int32' Name='types' Format='ascii'>
9 
9 
9 
9 
9 
9 
9 
9 
9 
9 
9 
9 
9 
9 
9 
9 
9 
9 
9 
9 
9 
9 
9 
9 
9 
9 
9 
9 
9 
9 
9 
9 
9 
9 
9 
9 
9 
9 
9 
9 
9 
9 
9 
9 
9 
9 
9 
9 
9 
9 
9 
9 
9 
9 
9 
9 
9 
9 
9 
9 
9 
9 
9 
9 
9 
9 
9 
9 
9 
9 
9 
9 
9 
9 
9 
9 
9 
9 
9 
9 
9 
9 
9 
9 
9 
9 
9 
9 
9 
9 
9 
9 
9 
9 
9 
9 
9 
9 
9 
9 
</DataArray>
</Cells>
</Piece>
</UnstructuredGrid>
</VTKFile>
