<VTKFile type='UnstructuredGrid' version='0.1' byte_order='BigEndian'> 
<UnstructuredGrid> 
<Piece NumberOfPoints='   121 ' NumberOfCells='   100 '> 
<Points> 
<DataArray type='Float32' NumberOfComponents='3' Format='ascii'> 
  0.000000   0.000000   0.000000 
  0.100000   0.000000   0.000000 
  0.200000   0.000000   0.000000 
  0.300000   0.000000   0.000000 
  0.400000   0.000000   0.000000 
  0.500000   0.000000   0.000000 
  0.600000   0.000000   0.000000 
  0.700000   0.000000   0.000000 
  0.800000   0.000000   0.000000 
  0.900000   0.000000   0.000000 
  1.000000   0.000000   0.000000 
  0.000000   0.100000   0.000000 
  0.100000   0.100000   0.000000 
  0.200000   0.100000   0.000000 
  0.300000   0.100000   0.000000 
  0.400000   0.100000   0.000000 
  0.500000   0.100000   0.000000 
  0.600000   0.100000   0.000000 
  0.700000   0.100000   0.000000 
  0.800000   0.100000   0.000000 
  0.900000   0.100000   0.000000 
  1.000000   0.100000   0.000000 
  0.000000   0.200000   0.000000 
  0.100000   0.200000   0.000000 
  0.200000   0.200000   0.000000 
  0.300000   0.200000   0.000000 
  0.400000   0.200000   0.000000 
  0.500000   0.200000   0.000000 
  0.600000   0.200000   0.000000 
  0.700000   0.200000   0.000000 
  0.800000   0.200000   0.000000 
  0.900000   0.200000   0.000000 
  1.000000   0.200000   0.000000 
  0.000000   0.300000   0.000000 
  0.100000   0.300000   0.000000 
  0.200000   0.300000   0.000000 
  0.300000   0.300000   0.000000 
  0.400000   0.300000   0.000000 
  0.500000   0.300000   0.000000 
  0.600000   0.300000   0.000000 
  0.700000   0.300000   0.000000 
  0.800000   0.300000   0.000000 
  0.900000   0.300000   0.000000 
  1.000000   0.300000   0.000000 
  0.000000   0.400000   0.000000 
  0.100000   0.400000   0.000000 
  0.200000   0.400000   0.000000 
  0.300000   0.400000   0.000000 
  0.400000   0.400000   0.000000 
  0.500000   0.400000   0.000000 
  0.600000   0.400000   0.000000 
  0.700000   0.400000   0.000000 
  0.800000   0.400000   0.000000 
  0.900000   0.400000   0.000000 
  1.000000   0.400000   0.000000 
  0.000000   0.500000   0.000000 
  0.100000   0.500000   0.000000 
  0.200000   0.500000   0.000000 
  0.300000   0.500000   0.000000 
  0.400000   0.500000   0.000000 
  0.500000   0.500000   0.000000 
  0.600000   0.500000   0.000000 
  0.700000   0.500000   0.000000 
  0.800000   0.500000   0.000000 
  0.900000   0.500000   0.000000 
  1.000000   0.500000   0.000000 
  0.000000   0.600000   0.000000 
  0.100000   0.600000   0.000000 
  0.200000   0.600000   0.000000 
  0.300000   0.600000   0.000000 
  0.400000   0.600000   0.000000 
  0.500000   0.600000   0.000000 
  0.600000   0.600000   0.000000 
  0.700000   0.600000   0.000000 
  0.800000   0.600000   0.000000 
  0.900000   0.600000   0.000000 
  1.000000   0.600000   0.000000 
  0.000000   0.700000   0.000000 
  0.100000   0.700000   0.000000 
  0.200000   0.700000   0.000000 
  0.300000   0.700000   0.000000 
  0.400000   0.700000   0.000000 
  0.500000   0.700000   0.000000 
  0.600000   0.700000   0.000000 
  0.700000   0.700000   0.000000 
  0.800000   0.700000   0.000000 
  0.900000   0.700000   0.000000 
  1.000000   0.700000   0.000000 
  0.000000   0.800000   0.000000 
  0.100000   0.800000   0.000000 
  0.200000   0.800000   0.000000 
  0.300000   0.800000   0.000000 
  0.400000   0.800000   0.000000 
  0.500000   0.800000   0.000000 
  0.600000   0.800000   0.000000 
  0.700000   0.800000   0.000000 
  0.800000   0.800000   0.000000 
  0.900000   0.800000   0.000000 
  1.000000   0.800000   0.000000 
  0.000000   0.900000   0.000000 
  0.100000   0.900000   0.000000 
  0.200000   0.900000   0.000000 
  0.300000   0.900000   0.000000 
  0.400000   0.900000   0.000000 
  0.500000   0.900000   0.000000 
  0.600000   0.900000   0.000000 
  0.700000   0.900000   0.000000 
  0.800000   0.900000   0.000000 
  0.900000   0.900000   0.000000 
  1.000000   0.900000   0.000000 
  0.000000   1.000000   0.000000 
  0.100000   1.000000   0.000000 
  0.200000   1.000000   0.000000 
  0.300000   1.000000   0.000000 
  0.400000   1.000000   0.000000 
  0.500000   1.000000   0.000000 
  0.600000   1.000000   0.000000 
  0.700000   1.000000   0.000000 
  0.800000   1.000000   0.000000 
  0.900000   1.000000   0.000000 
  1.000000   1.000000   0.000000 
</DataArray>
</Points> 
<PointData Scalars='scalars'>
<DataArray type='Float32' NumberOfComponents='3' Name='velocity' Format='ascii'> 
  0.866025   0.500000   0.000000 
  0.866025   0.500000   0.000000 
  0.866025   0.500000   0.000000 
  0.866025   0.500000   0.000000 
  0.866025   0.500000   0.000000 
  0.866025   0.500000   0.000000 
  0.866025   0.500000   0.000000 
  0.866025   0.500000   0.000000 
  0.866025   0.500000   0.000000 
  0.866025   0.500000   0.000000 
  0.866025   0.500000   0.000000 
  0.866025   0.500000   0.000000 
  0.866025   0.500000   0.000000 
  0.866025   0.500000   0.000000 
  0.866025   0.500000   0.000000 
  0.866025   0.500000   0.000000 
  0.866025   0.500000   0.000000 
  0.866025   0.500000   0.000000 
  0.866025   0.500000   0.000000 
  0.866025   0.500000   0.000000 
  0.866025   0.500000   0.000000 
  0.866025   0.500000   0.000000 
  0.866025   0.500000   0.000000 
  0.866025   0.500000   0.000000 
  0.866025   0.500000   0.000000 
  0.866025   0.500000   0.000000 
  0.866025   0.500000   0.000000 
  0.866025   0.500000   0.000000 
  0.866025   0.500000   0.000000 
  0.866025   0.500000   0.000000 
  0.866025   0.500000   0.000000 
  0.866025   0.500000   0.000000 
  0.866025   0.500000   0.000000 
  0.866025   0.500000   0.000000 
  0.866025   0.500000   0.000000 
  0.866025   0.500000   0.000000 
  0.866025   0.500000   0.000000 
  0.866025   0.500000   0.000000 
  0.866025   0.500000   0.000000 
  0.866025   0.500000   0.000000 
  0.866025   0.500000   0.000000 
  0.866025   0.500000   0.000000 
  0.866025   0.500000   0.000000 
  0.866025   0.500000   0.000000 
  0.866025   0.500000   0.000000 
  0.866025   0.500000   0.000000 
  0.866025   0.500000   0.000000 
  0.866025   0.500000   0.000000 
  0.866025   0.500000   0.000000 
  0.866025   0.500000   0.000000 
  0.866025   0.500000   0.000000 
  0.866025   0.500000   0.000000 
  0.866025   0.500000   0.000000 
  0.866025   0.500000   0.000000 
  0.866025   0.500000   0.000000 
  0.866025   0.500000   0.000000 
  0.866025   0.500000   0.000000 
  0.866025   0.500000   0.000000 
  0.866025   0.500000   0.000000 
  0.866025   0.500000   0.000000 
  0.866025   0.500000   0.000000 
  0.866025   0.500000   0.000000 
  0.866025   0.500000   0.000000 
  0.866025   0.500000   0.000000 
  0.866025   0.500000   0.000000 
  0.866025   0.500000   0.000000 
  0.866025   0.500000   0.000000 
  0.866025   0.500000   0.000000 
  0.866025   0.500000   0.000000 
  0.866025   0.500000   0.000000 
  0.866025   0.500000   0.000000 
  0.866025   0.500000   0.000000 
  0.866025   0.500000   0.000000 
  0.866025   0.500000   0.000000 
  0.866025   0.500000   0.000000 
  0.866025   0.500000   0.000000 
  0.866025   0.500000   0.000000 
  0.866025   0.500000   0.000000 
  0.866025   0.500000   0.000000 
  0.866025   0.500000   0.000000 
  0.866025   0.500000   0.000000 
  0.866025   0.500000   0.000000 
  0.866025   0.500000   0.000000 
  0.866025   0.500000   0.000000 
  0.866025   0.500000   0.000000 
  0.866025   0.500000   0.000000 
  0.866025   0.500000   0.000000 
  0.866025   0.500000   0.000000 
  0.866025   0.500000   0.000000 
  0.866025   0.500000   0.000000 
  0.866025   0.500000   0.000000 
  0.866025   0.500000   0.000000 
  0.866025   0.500000   0.000000 
  0.866025   0.500000   0.000000 
  0.866025   0.500000   0.000000 
  0.866025   0.500000   0.000000 
  0.866025   0.500000   0.000000 
  0.866025   0.500000   0.000000 
  0.866025   0.500000   0.000000 
  0.866025   0.500000   0.000000 
  0.866025   0.500000   0.000000 
  0.866025   0.500000   0.000000 
  0.866025   0.500000   0.000000 
  0.866025   0.500000   0.000000 
  0.866025   0.500000   0.000000 
  0.866025   0.500000   0.000000 
  0.866025   0.500000   0.000000 
  0.866025   0.500000   0.000000 
  0.866025   0.500000   0.000000 
  0.866025   0.500000   0.000000 
  0.866025   0.500000   0.000000 
  0.866025   0.500000   0.000000 
  0.866025   0.500000   0.000000 
  0.866025   0.500000   0.000000 
  0.866025   0.500000   0.000000 
  0.866025   0.500000   0.000000 
  0.866025   0.500000   0.000000 
  0.866025   0.500000   0.000000 
  0.866025   0.500000   0.000000 
  0.866025   0.500000   0.000000 
  0.866025   0.500000   0.000000 
</DataArray>
<DataArray type='Float32' Name='temperature' Format='ascii'> 
 -0.000000 
 -0.000000 
 -0.000000 
 -0.000000 
 -0.000000 
 -0.000000 
 -0.000000 
 -0.000000 
 -0.000000 
 -0.000000 
  0.000000 
 -0.000000 
 -0.229568 
 -0.248199 
 -0.137647 
 -0.012185 
  0.059893 
  0.049894 
  0.009770 
 -0.029517 
 -0.028245 
 -0.006738 
  1.000000 
  0.555629 
  0.084334 
 -0.207393 
 -0.272202 
 -0.158073 
  0.000944 
  0.083312 
  0.079671 
  0.002134 
 -0.039510 
  1.000000 
  1.017997 
  0.829785 
  0.436949 
  0.040624 
 -0.238717 
 -0.270051 
 -0.150474 
  0.020272 
  0.109889 
  0.077732 
  1.000000 
  0.996039 
  1.031952 
  0.963897 
  0.720081 
  0.354043 
 -0.041123 
 -0.247459 
 -0.283291 
 -0.112505 
  0.036319 
  1.000000 
  1.006442 
  0.981483 
  1.029855 
  1.004447 
  0.912071 
  0.627580 
  0.257346 
 -0.090000 
 -0.291485 
 -0.247485 
  1.000000 
  1.018354 
  1.005721 
  0.989690 
  1.012415 
  1.004747 
  1.005140 
  0.817910 
  0.564054 
  0.153259 
 -0.131298 
  1.000000 
  0.979225 
  1.030281 
  0.994117 
  1.023779 
  0.985329 
  1.021734 
  1.003644 
  0.951186 
  0.765324 
  0.447357 
  1.000000 
  0.970683 
  0.991500 
  0.996273 
  1.006982 
  1.017633 
  0.999258 
  1.020382 
  1.004122 
  1.010120 
  0.891236 
  1.000000 
  1.003860 
  0.977405 
  0.994359 
  0.978245 
  1.009028 
  0.996997 
  1.016029 
  1.003517 
  1.020192 
  1.013181 
  1.000000 
  1.016698 
  0.992194 
  0.999254 
  0.981039 
  0.992156 
  0.991830 
  1.003202 
  1.004571 
  1.007324 
  1.014046 
</DataArray>
</PointData>
<Cells>
<DataArray type='Int32' Name='connectivity' Format='ascii'> 
0 1 12 11
1 2 13 12
2 3 14 13
3 4 15 14
4 5 16 15
5 6 17 16
6 7 18 17
7 8 19 18
8 9 20 19
9 10 21 20
11 12 23 22
12 13 24 23
13 14 25 24
14 15 26 25
15 16 27 26
16 17 28 27
17 18 29 28
18 19 30 29
19 20 31 30
20 21 32 31
22 23 34 33
23 24 35 34
24 25 36 35
25 26 37 36
26 27 38 37
27 28 39 38
28 29 40 39
29 30 41 40
30 31 42 41
31 32 43 42
33 34 45 44
34 35 46 45
35 36 47 46
36 37 48 47
37 38 49 48
38 39 50 49
39 40 51 50
40 41 52 51
41 42 53 52
42 43 54 53
44 45 56 55
45 46 57 56
46 47 58 57
47 48 59 58
48 49 60 59
49 50 61 60
50 51 62 61
51 52 63 62
52 53 64 63
53 54 65 64
55 56 67 66
56 57 68 67
57 58 69 68
58 59 70 69
59 60 71 70
60 61 72 71
61 62 73 72
62 63 74 73
63 64 75 74
64 65 76 75
66 67 78 77
67 68 79 78
68 69 80 79
69 70 81 80
70 71 82 81
71 72 83 82
72 73 84 83
73 74 85 84
74 75 86 85
75 76 87 86
77 78 89 88
78 79 90 89
79 80 91 90
80 81 92 91
81 82 93 92
82 83 94 93
83 84 95 94
84 85 96 95
85 86 97 96
86 87 98 97
88 89 100 99
89 90 101 100
90 91 102 101
91 92 103 102
92 93 104 103
93 94 105 104
94 95 106 105
95 96 107 106
96 97 108 107
97 98 109 108
99 100 111 110
100 101 112 111
101 102 113 112
102 103 114 113
103 104 115 114
104 105 116 115
105 106 117 116
106 107 118 117
107 108 119 118
108 109 120 119
</DataArray>
<DataArray type='Int32' Name='offsets' Format='ascii'> 
4 
8 
12 
16 
20 
24 
28 
32 
36 
40 
44 
48 
52 
56 
60 
64 
68 
72 
76 
80 
84 
88 
92 
96 
100 
104 
108 
112 
116 
120 
124 
128 
132 
136 
140 
144 
148 
152 
156 
160 
164 
168 
172 
176 
180 
184 
188 
192 
196 
200 
204 
208 
212 
216 
220 
224 
228 
232 
236 
240 
244 
248 
252 
256 
260 
264 
268 
272 
276 
280 
284 
288 
292 
296 
300 
304 
308 
312 
316 
320 
324 
328 
332 
336 
340 
344 
348 
352 
356 
360 
364 
368 
372 
376 
380 
384 
388 
392 
396 
400 
</DataArray>
<DataArray type='Int32' Name='types' Format='ascii'>
9 
9 
9 
9 
9 
9 
9 
9 
9 
9 
9 
9 
9 
9 
9 
9 
9 
9 
9 
9 
9 
9 
9 
9 
9 
9 
9 
9 
9 
9 
9 
9 
9 
9 
9 
9 
9 
9 
9 
9 
9 
9 
9 
9 
9 
9 
9 
9 
9 
9 
9 
9 
9 
9 
9 
9 
9 
9 
9 
9 
9 
9 
9 
9 
9 
9 
9 
9 
9 
9 
9 
9 
9 
9 
9 
9 
9 
9 
9 
9 
9 
9 
9 
9 
9 
9 
9 
9 
9 
9 
9 
9 
9 
9 
9 
9 
9 
9 
9 
9 
</DataArray>
</Cells>
</Piece>
</UnstructuredGrid>
</VTKFile>
