<VTKFile type='UnstructuredGrid' version='0.1' byte_order='BigEndian'> 
<UnstructuredGrid> 
<Piece NumberOfPoints='   121 ' NumberOfCells='   100 '> 
<Points> 
<DataArray type='Float32' NumberOfComponents='3' Format='ascii'> 
  0.000000   0.000000   0.000000 
  0.100000   0.000000   0.000000 
  0.200000   0.000000   0.000000 
  0.300000   0.000000   0.000000 
  0.400000   0.000000   0.000000 
  0.500000   0.000000   0.000000 
  0.600000   0.000000   0.000000 
  0.700000   0.000000   0.000000 
  0.800000   0.000000   0.000000 
  0.900000   0.000000   0.000000 
  1.000000   0.000000   0.000000 
  0.000000   0.100000   0.000000 
  0.100000   0.100000   0.000000 
  0.200000   0.100000   0.000000 
  0.300000   0.100000   0.000000 
  0.400000   0.100000   0.000000 
  0.500000   0.100000   0.000000 
  0.600000   0.100000   0.000000 
  0.700000   0.100000   0.000000 
  0.800000   0.100000   0.000000 
  0.900000   0.100000   0.000000 
  1.000000   0.100000   0.000000 
  0.000000   0.200000   0.000000 
  0.100000   0.200000   0.000000 
  0.200000   0.200000   0.000000 
  0.300000   0.200000   0.000000 
  0.400000   0.200000   0.000000 
  0.500000   0.200000   0.000000 
  0.600000   0.200000   0.000000 
  0.700000   0.200000   0.000000 
  0.800000   0.200000   0.000000 
  0.900000   0.200000   0.000000 
  1.000000   0.200000   0.000000 
  0.000000   0.300000   0.000000 
  0.100000   0.300000   0.000000 
  0.200000   0.300000   0.000000 
  0.300000   0.300000   0.000000 
  0.400000   0.300000   0.000000 
  0.500000   0.300000   0.000000 
  0.600000   0.300000   0.000000 
  0.700000   0.300000   0.000000 
  0.800000   0.300000   0.000000 
  0.900000   0.300000   0.000000 
  1.000000   0.300000   0.000000 
  0.000000   0.400000   0.000000 
  0.100000   0.400000   0.000000 
  0.200000   0.400000   0.000000 
  0.300000   0.400000   0.000000 
  0.400000   0.400000   0.000000 
  0.500000   0.400000   0.000000 
  0.600000   0.400000   0.000000 
  0.700000   0.400000   0.000000 
  0.800000   0.400000   0.000000 
  0.900000   0.400000   0.000000 
  1.000000   0.400000   0.000000 
  0.000000   0.500000   0.000000 
  0.100000   0.500000   0.000000 
  0.200000   0.500000   0.000000 
  0.300000   0.500000   0.000000 
  0.400000   0.500000   0.000000 
  0.500000   0.500000   0.000000 
  0.600000   0.500000   0.000000 
  0.700000   0.500000   0.000000 
  0.800000   0.500000   0.000000 
  0.900000   0.500000   0.000000 
  1.000000   0.500000   0.000000 
  0.000000   0.600000   0.000000 
  0.100000   0.600000   0.000000 
  0.200000   0.600000   0.000000 
  0.300000   0.600000   0.000000 
  0.400000   0.600000   0.000000 
  0.500000   0.600000   0.000000 
  0.600000   0.600000   0.000000 
  0.700000   0.600000   0.000000 
  0.800000   0.600000   0.000000 
  0.900000   0.600000   0.000000 
  1.000000   0.600000   0.000000 
  0.000000   0.700000   0.000000 
  0.100000   0.700000   0.000000 
  0.200000   0.700000   0.000000 
  0.300000   0.700000   0.000000 
  0.400000   0.700000   0.000000 
  0.500000   0.700000   0.000000 
  0.600000   0.700000   0.000000 
  0.700000   0.700000   0.000000 
  0.800000   0.700000   0.000000 
  0.900000   0.700000   0.000000 
  1.000000   0.700000   0.000000 
  0.000000   0.800000   0.000000 
  0.100000   0.800000   0.000000 
  0.200000   0.800000   0.000000 
  0.300000   0.800000   0.000000 
  0.400000   0.800000   0.000000 
  0.500000   0.800000   0.000000 
  0.600000   0.800000   0.000000 
  0.700000   0.800000   0.000000 
  0.800000   0.800000   0.000000 
  0.900000   0.800000   0.000000 
  1.000000   0.800000   0.000000 
  0.000000   0.900000   0.000000 
  0.100000   0.900000   0.000000 
  0.200000   0.900000   0.000000 
  0.300000   0.900000   0.000000 
  0.400000   0.900000   0.000000 
  0.500000   0.900000   0.000000 
  0.600000   0.900000   0.000000 
  0.700000   0.900000   0.000000 
  0.800000   0.900000   0.000000 
  0.900000   0.900000   0.000000 
  1.000000   0.900000   0.000000 
  0.000000   1.000000   0.000000 
  0.100000   1.000000   0.000000 
  0.200000   1.000000   0.000000 
  0.300000   1.000000   0.000000 
  0.400000   1.000000   0.000000 
  0.500000   1.000000   0.000000 
  0.600000   1.000000   0.000000 
  0.700000   1.000000   0.000000 
  0.800000   1.000000   0.000000 
  0.900000   1.000000   0.000000 
  1.000000   1.000000   0.000000 
</DataArray>
</Points> 
<PointData Scalars='scalars'>
<DataArray type='Float32' NumberOfComponents='3' Name='velocity' Format='ascii'> 
  0.866025   0.500000   0.000000 
  0.866025   0.500000   0.000000 
  0.866025   0.500000   0.000000 
  0.866025   0.500000   0.000000 
  0.866025   0.500000   0.000000 
  0.866025   0.500000   0.000000 
  0.866025   0.500000   0.000000 
  0.866025   0.500000   0.000000 
  0.866025   0.500000   0.000000 
  0.866025   0.500000   0.000000 
  0.866025   0.500000   0.000000 
  0.866025   0.500000   0.000000 
  0.866025   0.500000   0.000000 
  0.866025   0.500000   0.000000 
  0.866025   0.500000   0.000000 
  0.866025   0.500000   0.000000 
  0.866025   0.500000   0.000000 
  0.866025   0.500000   0.000000 
  0.866025   0.500000   0.000000 
  0.866025   0.500000   0.000000 
  0.866025   0.500000   0.000000 
  0.866025   0.500000   0.000000 
  0.866025   0.500000   0.000000 
  0.866025   0.500000   0.000000 
  0.866025   0.500000   0.000000 
  0.866025   0.500000   0.000000 
  0.866025   0.500000   0.000000 
  0.866025   0.500000   0.000000 
  0.866025   0.500000   0.000000 
  0.866025   0.500000   0.000000 
  0.866025   0.500000   0.000000 
  0.866025   0.500000   0.000000 
  0.866025   0.500000   0.000000 
  0.866025   0.500000   0.000000 
  0.866025   0.500000   0.000000 
  0.866025   0.500000   0.000000 
  0.866025   0.500000   0.000000 
  0.866025   0.500000   0.000000 
  0.866025   0.500000   0.000000 
  0.866025   0.500000   0.000000 
  0.866025   0.500000   0.000000 
  0.866025   0.500000   0.000000 
  0.866025   0.500000   0.000000 
  0.866025   0.500000   0.000000 
  0.866025   0.500000   0.000000 
  0.866025   0.500000   0.000000 
  0.866025   0.500000   0.000000 
  0.866025   0.500000   0.000000 
  0.866025   0.500000   0.000000 
  0.866025   0.500000   0.000000 
  0.866025   0.500000   0.000000 
  0.866025   0.500000   0.000000 
  0.866025   0.500000   0.000000 
  0.866025   0.500000   0.000000 
  0.866025   0.500000   0.000000 
  0.866025   0.500000   0.000000 
  0.866025   0.500000   0.000000 
  0.866025   0.500000   0.000000 
  0.866025   0.500000   0.000000 
  0.866025   0.500000   0.000000 
  0.866025   0.500000   0.000000 
  0.866025   0.500000   0.000000 
  0.866025   0.500000   0.000000 
  0.866025   0.500000   0.000000 
  0.866025   0.500000   0.000000 
  0.866025   0.500000   0.000000 
  0.866025   0.500000   0.000000 
  0.866025   0.500000   0.000000 
  0.866025   0.500000   0.000000 
  0.866025   0.500000   0.000000 
  0.866025   0.500000   0.000000 
  0.866025   0.500000   0.000000 
  0.866025   0.500000   0.000000 
  0.866025   0.500000   0.000000 
  0.866025   0.500000   0.000000 
  0.866025   0.500000   0.000000 
  0.866025   0.500000   0.000000 
  0.866025   0.500000   0.000000 
  0.866025   0.500000   0.000000 
  0.866025   0.500000   0.000000 
  0.866025   0.500000   0.000000 
  0.866025   0.500000   0.000000 
  0.866025   0.500000   0.000000 
  0.866025   0.500000   0.000000 
  0.866025   0.500000   0.000000 
  0.866025   0.500000   0.000000 
  0.866025   0.500000   0.000000 
  0.866025   0.500000   0.000000 
  0.866025   0.500000   0.000000 
  0.866025   0.500000   0.000000 
  0.866025   0.500000   0.000000 
  0.866025   0.500000   0.000000 
  0.866025   0.500000   0.000000 
  0.866025   0.500000   0.000000 
  0.866025   0.500000   0.000000 
  0.866025   0.500000   0.000000 
  0.866025   0.500000   0.000000 
  0.866025   0.500000   0.000000 
  0.866025   0.500000   0.000000 
  0.866025   0.500000   0.000000 
  0.866025   0.500000   0.000000 
  0.866025   0.500000   0.000000 
  0.866025   0.500000   0.000000 
  0.866025   0.500000   0.000000 
  0.866025   0.500000   0.000000 
  0.866025   0.500000   0.000000 
  0.866025   0.500000   0.000000 
  0.866025   0.500000   0.000000 
  0.866025   0.500000   0.000000 
  0.866025   0.500000   0.000000 
  0.866025   0.500000   0.000000 
  0.866025   0.500000   0.000000 
  0.866025   0.500000   0.000000 
  0.866025   0.500000   0.000000 
  0.866025   0.500000   0.000000 
  0.866025   0.500000   0.000000 
  0.866025   0.500000   0.000000 
  0.866025   0.500000   0.000000 
  0.866025   0.500000   0.000000 
  0.866025   0.500000   0.000000 
  0.866025   0.500000   0.000000 
</DataArray>
<DataArray type='Float32' Name='temperature' Format='ascii'> 
  0.000000 
  0.000000 
  0.000000 
  0.000000 
  0.000000 
  0.000000 
  0.000000 
  0.000000 
  0.000000 
  0.000000 
  0.000000 
  0.000000 
  0.150705 
  0.131874 
  0.101974 
  0.077448 
  0.058993 
  0.045294 
  0.035080 
  0.027396 
  0.021601 
  0.019114 
  1.000000 
  0.531638 
  0.375676 
  0.280565 
  0.213726 
  0.164787 
  0.128259 
  0.100634 
  0.079519 
  0.063361 
  0.056377 
  1.000000 
  0.844767 
  0.643286 
  0.499217 
  0.392477 
  0.311074 
  0.248016 
  0.198705 
  0.159890 
  0.129459 
  0.116152 
  1.000000 
  0.937490 
  0.822815 
  0.692237 
  0.574634 
  0.474616 
  0.391217 
  0.322277 
  0.265551 
  0.219512 
  0.199054 
  1.000000 
  0.972571 
  0.912096 
  0.824281 
  0.725064 
  0.627368 
  0.537282 
  0.457071 
  0.387142 
  0.327841 
  0.300957 
  1.000000 
  0.987313 
  0.955875 
  0.902565 
  0.831553 
  0.750827 
  0.667695 
  0.587093 
  0.511927 
  0.444853 
  0.413743 
  1.000000 
  0.993917 
  0.977557 
  0.946615 
  0.900062 
  0.840449 
  0.772276 
  0.700150 
  0.627878 
  0.559745 
  0.527369 
  1.000000 
  0.997001 
  0.988428 
  0.970827 
  0.941738 
  0.900684 
  0.849179 
  0.789956 
  0.726187 
  0.662611 
  0.631652 
  1.000000 
  0.998458 
  0.993828 
  0.983677 
  0.965565 
  0.937833 
  0.900111 
  0.853321 
  0.799419 
  0.742782 
  0.714573 
  1.000000 
  0.998919 
  0.995582 
  0.987997 
  0.973890 
  0.951332 
  0.919316 
  0.878016 
  0.828776 
  0.775672 
  0.748935 
</DataArray>
</PointData>
<Cells>
<DataArray type='Int32' Name='connectivity' Format='ascii'> 
0 1 12 11
1 2 13 12
2 3 14 13
3 4 15 14
4 5 16 15
5 6 17 16
6 7 18 17
7 8 19 18
8 9 20 19
9 10 21 20
11 12 23 22
12 13 24 23
13 14 25 24
14 15 26 25
15 16 27 26
16 17 28 27
17 18 29 28
18 19 30 29
19 20 31 30
20 21 32 31
22 23 34 33
23 24 35 34
24 25 36 35
25 26 37 36
26 27 38 37
27 28 39 38
28 29 40 39
29 30 41 40
30 31 42 41
31 32 43 42
33 34 45 44
34 35 46 45
35 36 47 46
36 37 48 47
37 38 49 48
38 39 50 49
39 40 51 50
40 41 52 51
41 42 53 52
42 43 54 53
44 45 56 55
45 46 57 56
46 47 58 57
47 48 59 58
48 49 60 59
49 50 61 60
50 51 62 61
51 52 63 62
52 53 64 63
53 54 65 64
55 56 67 66
56 57 68 67
57 58 69 68
58 59 70 69
59 60 71 70
60 61 72 71
61 62 73 72
62 63 74 73
63 64 75 74
64 65 76 75
66 67 78 77
67 68 79 78
68 69 80 79
69 70 81 80
70 71 82 81
71 72 83 82
72 73 84 83
73 74 85 84
74 75 86 85
75 76 87 86
77 78 89 88
78 79 90 89
79 80 91 90
80 81 92 91
81 82 93 92
82 83 94 93
83 84 95 94
84 85 96 95
85 86 97 96
86 87 98 97
88 89 100 99
89 90 101 100
90 91 102 101
91 92 103 102
92 93 104 103
93 94 105 104
94 95 106 105
95 96 107 106
96 97 108 107
97 98 109 108
99 100 111 110
100 101 112 111
101 102 113 112
102 103 114 113
103 104 115 114
104 105 116 115
105 106 117 116
106 107 118 117
107 108 119 118
108 109 120 119
</DataArray>
<DataArray type='Int32' Name='offsets' Format='ascii'> 
4 
8 
12 
16 
20 
24 
28 
32 
36 
40 
44 
48 
52 
56 
60 
64 
68 
72 
76 
80 
84 
88 
92 
96 
100 
104 
108 
112 
116 
120 
124 
128 
132 
136 
140 
144 
148 
152 
156 
160 
164 
168 
172 
176 
180 
184 
188 
192 
196 
200 
204 
208 
212 
216 
220 
224 
228 
232 
236 
240 
244 
248 
252 
256 
260 
264 
268 
272 
276 
280 
284 
288 
292 
296 
300 
304 
308 
312 
316 
320 
324 
328 
332 
336 
340 
344 
348 
352 
356 
360 
364 
368 
372 
376 
380 
384 
388 
392 
396 
400 
</DataArray>
<DataArray type='Int32' Name='types' Format='ascii'>
9 
9 
9 
9 
9 
9 
9 
9 
9 
9 
9 
9 
9 
9 
9 
9 
9 
9 
9 
9 
9 
9 
9 
9 
9 
9 
9 
9 
9 
9 
9 
9 
9 
9 
9 
9 
9 
9 
9 
9 
9 
9 
9 
9 
9 
9 
9 
9 
9 
9 
9 
9 
9 
9 
9 
9 
9 
9 
9 
9 
9 
9 
9 
9 
9 
9 
9 
9 
9 
9 
9 
9 
9 
9 
9 
9 
9 
9 
9 
9 
9 
9 
9 
9 
9 
9 
9 
9 
9 
9 
9 
9 
9 
9 
9 
9 
9 
9 
9 
9 
</DataArray>
</Cells>
</Piece>
</UnstructuredGrid>
</VTKFile>
