<VTKFile type='UnstructuredGrid' version='0.1' byte_order='BigEndian'> 
<UnstructuredGrid> 
<Piece NumberOfPoints='  5838 ' NumberOfCells='  5560 '> 
<Points> 
<DataArray type='Float32' NumberOfComponents='3' Format='ascii'> 
  1.220000   0.000000   0.000000 
  1.219688   0.027571   0.000000 
  1.218754   0.055129   0.000000 
  1.217197   0.082658   0.000000 
  1.215018   0.110145   0.000000 
  1.212218   0.137575   0.000000 
  1.208800   0.164936   0.000000 
  1.204763   0.192212   0.000000 
  1.200112   0.219390   0.000000 
  1.194847   0.246455   0.000000 
  1.188972   0.273395   0.000000 
  1.182490   0.300196   0.000000 
  1.175404   0.326843   0.000000 
  1.167717   0.353323   0.000000 
  1.159434   0.379622   0.000000 
  1.150559   0.405728   0.000000 
  1.141095   0.431626   0.000000 
  1.131049   0.457304   0.000000 
  1.120426   0.482748   0.000000 
  1.109230   0.507946   0.000000 
  1.097467   0.532884   0.000000 
  1.085144   0.557550   0.000000 
  1.072267   0.581932   0.000000 
  1.058841   0.606016   0.000000 
  1.044875   0.629790   0.000000 
  1.030375   0.653243   0.000000 
  1.015349   0.676362   0.000000 
  0.999805   0.699136   0.000000 
  0.983749   0.721552   0.000000 
  0.967191   0.743600   0.000000 
  0.950139   0.765268   0.000000 
  0.932602   0.786545   0.000000 
  0.914588   0.807421   0.000000 
  0.896107   0.827884   0.000000 
  0.877169   0.847924   0.000000 
  0.857782   0.867531   0.000000 
  0.837957   0.886695   0.000000 
  0.817704   0.905406   0.000000 
  0.797034   0.923654   0.000000 
  0.775956   0.941431   0.000000 
  0.754482   0.958726   0.000000 
  0.732623   0.975532   0.000000 
  0.710389   0.991840   0.000000 
  0.687793   1.007641   0.000000 
  0.664845   1.022928   0.000000 
  0.641558   1.037692   0.000000 
  0.617942   1.051925   0.000000 
  0.594012   1.065622   0.000000 
  0.569777   1.078774   0.000000 
  0.545252   1.091375   0.000000 
  0.520449   1.103419   0.000000 
  0.495379   1.114899   0.000000 
  0.470056   1.125810   0.000000 
  0.444494   1.136145   0.000000 
  0.418704   1.145900   0.000000 
  0.392700   1.155070   0.000000 
  0.366496   1.163650   0.000000 
  0.340104   1.171635   0.000000 
  0.313539   1.179022   0.000000 
  0.286814   1.185807   0.000000 
  0.259942   1.191986   0.000000 
  0.232937   1.197556   0.000000 
  0.205814   1.202514   0.000000 
  0.178585   1.206858   0.000000 
  0.151265   1.210586   0.000000 
  0.123868   1.213696   0.000000 
  0.096407   1.216185   0.000000 
  0.068898   1.218053   0.000000 
  0.041353   1.219299   0.000000 
  0.013787   1.219922   0.000000 
 -0.013787   1.219922   0.000000 
 -0.041353   1.219299   0.000000 
 -0.068898   1.218053   0.000000 
 -0.096407   1.216185   0.000000 
 -0.123868   1.213696   0.000000 
 -0.151265   1.210586   0.000000 
 -0.178585   1.206858   0.000000 
 -0.205814   1.202514   0.000000 
 -0.232937   1.197556   0.000000 
 -0.259942   1.191986   0.000000 
 -0.286814   1.185807   0.000000 
 -0.313539   1.179022   0.000000 
 -0.340104   1.171635   0.000000 
 -0.366496   1.163650   0.000000 
 -0.392700   1.155070   0.000000 
 -0.418704   1.145900   0.000000 
 -0.444494   1.136145   0.000000 
 -0.470056   1.125810   0.000000 
 -0.495379   1.114899   0.000000 
 -0.520449   1.103419   0.000000 
 -0.545252   1.091375   0.000000 
 -0.569777   1.078774   0.000000 
 -0.594012   1.065622   0.000000 
 -0.617942   1.051925   0.000000 
 -0.641558   1.037692   0.000000 
 -0.664845   1.022928   0.000000 
 -0.687793   1.007641   0.000000 
 -0.710389   0.991840   0.000000 
 -0.732623   0.975532   0.000000 
 -0.754482   0.958726   0.000000 
 -0.775956   0.941431   0.000000 
 -0.797034   0.923654   0.000000 
 -0.817704   0.905406   0.000000 
 -0.837957   0.886695   0.000000 
 -0.857782   0.867531   0.000000 
 -0.877169   0.847924   0.000000 
 -0.896107   0.827884   0.000000 
 -0.914588   0.807421   0.000000 
 -0.932602   0.786545   0.000000 
 -0.950139   0.765268   0.000000 
 -0.967191   0.743600   0.000000 
 -0.983749   0.721552   0.000000 
 -0.999805   0.699136   0.000000 
 -1.015349   0.676362   0.000000 
 -1.030375   0.653243   0.000000 
 -1.044875   0.629790   0.000000 
 -1.058841   0.606016   0.000000 
 -1.072267   0.581932   0.000000 
 -1.085144   0.557550   0.000000 
 -1.097467   0.532884   0.000000 
 -1.109230   0.507946   0.000000 
 -1.120426   0.482748   0.000000 
 -1.131049   0.457304   0.000000 
 -1.141095   0.431626   0.000000 
 -1.150559   0.405728   0.000000 
 -1.159434   0.379622   0.000000 
 -1.167717   0.353323   0.000000 
 -1.175404   0.326843   0.000000 
 -1.182490   0.300196   0.000000 
 -1.188972   0.273395   0.000000 
 -1.194847   0.246455   0.000000 
 -1.200112   0.219390   0.000000 
 -1.204763   0.192212   0.000000 
 -1.208800   0.164936   0.000000 
 -1.212218   0.137575   0.000000 
 -1.215018   0.110145   0.000000 
 -1.217197   0.082658   0.000000 
 -1.218754   0.055129   0.000000 
 -1.219688   0.027571   0.000000 
 -1.220000   0.000000   0.000000 
 -1.219688  -0.027571   0.000000 
 -1.218754  -0.055129   0.000000 
 -1.217197  -0.082658   0.000000 
 -1.215018  -0.110145   0.000000 
 -1.212218  -0.137575   0.000000 
 -1.208800  -0.164936   0.000000 
 -1.204763  -0.192212   0.000000 
 -1.200112  -0.219390   0.000000 
 -1.194847  -0.246455   0.000000 
 -1.188972  -0.273395   0.000000 
 -1.182490  -0.300196   0.000000 
 -1.175404  -0.326843   0.000000 
 -1.167717  -0.353323   0.000000 
 -1.159434  -0.379622   0.000000 
 -1.150559  -0.405728   0.000000 
 -1.141095  -0.431626   0.000000 
 -1.131049  -0.457304   0.000000 
 -1.120426  -0.482748   0.000000 
 -1.109230  -0.507946   0.000000 
 -1.097467  -0.532884   0.000000 
 -1.085144  -0.557550   0.000000 
 -1.072267  -0.581932   0.000000 
 -1.058841  -0.606016   0.000000 
 -1.044875  -0.629790   0.000000 
 -1.030375  -0.653243   0.000000 
 -1.015349  -0.676362   0.000000 
 -0.999805  -0.699136   0.000000 
 -0.983749  -0.721552   0.000000 
 -0.967191  -0.743600   0.000000 
 -0.950139  -0.765268   0.000000 
 -0.932602  -0.786545   0.000000 
 -0.914588  -0.807421   0.000000 
 -0.896107  -0.827884   0.000000 
 -0.877169  -0.847924   0.000000 
 -0.857782  -0.867531   0.000000 
 -0.837957  -0.886695   0.000000 
 -0.817704  -0.905406   0.000000 
 -0.797034  -0.923654   0.000000 
 -0.775956  -0.941431   0.000000 
 -0.754482  -0.958726   0.000000 
 -0.732623  -0.975532   0.000000 
 -0.710389  -0.991840   0.000000 
 -0.687793  -1.007641   0.000000 
 -0.664845  -1.022928   0.000000 
 -0.641558  -1.037692   0.000000 
 -0.617942  -1.051925   0.000000 
 -0.594012  -1.065622   0.000000 
 -0.569777  -1.078774   0.000000 
 -0.545252  -1.091375   0.000000 
 -0.520449  -1.103419   0.000000 
 -0.495379  -1.114899   0.000000 
 -0.470056  -1.125810   0.000000 
 -0.444494  -1.136145   0.000000 
 -0.418704  -1.145900   0.000000 
 -0.392700  -1.155070   0.000000 
 -0.366496  -1.163650   0.000000 
 -0.340104  -1.171635   0.000000 
 -0.313539  -1.179022   0.000000 
 -0.286814  -1.185807   0.000000 
 -0.259942  -1.191986   0.000000 
 -0.232937  -1.197556   0.000000 
 -0.205814  -1.202514   0.000000 
 -0.178585  -1.206858   0.000000 
 -0.151265  -1.210586   0.000000 
 -0.123868  -1.213696   0.000000 
 -0.096407  -1.216185   0.000000 
 -0.068898  -1.218053   0.000000 
 -0.041353  -1.219299   0.000000 
 -0.013787  -1.219922   0.000000 
  0.013787  -1.219922   0.000000 
  0.041353  -1.219299   0.000000 
  0.068898  -1.218053   0.000000 
  0.096407  -1.216185   0.000000 
  0.123868  -1.213696   0.000000 
  0.151265  -1.210586   0.000000 
  0.178585  -1.206858   0.000000 
  0.205814  -1.202514   0.000000 
  0.232937  -1.197556   0.000000 
  0.259942  -1.191986   0.000000 
  0.286814  -1.185807   0.000000 
  0.313539  -1.179022   0.000000 
  0.340104  -1.171635   0.000000 
  0.366496  -1.163650   0.000000 
  0.392700  -1.155070   0.000000 
  0.418704  -1.145900   0.000000 
  0.444494  -1.136145   0.000000 
  0.470056  -1.125810   0.000000 
  0.495379  -1.114899   0.000000 
  0.520449  -1.103419   0.000000 
  0.545252  -1.091375   0.000000 
  0.569777  -1.078774   0.000000 
  0.594012  -1.065622   0.000000 
  0.617942  -1.051925   0.000000 
  0.641558  -1.037692   0.000000 
  0.664845  -1.022928   0.000000 
  0.687793  -1.007641   0.000000 
  0.710389  -0.991840   0.000000 
  0.732623  -0.975532   0.000000 
  0.754482  -0.958726   0.000000 
  0.775956  -0.941431   0.000000 
  0.797034  -0.923654   0.000000 
  0.817704  -0.905406   0.000000 
  0.837957  -0.886695   0.000000 
  0.857782  -0.867531   0.000000 
  0.877169  -0.847924   0.000000 
  0.896107  -0.827884   0.000000 
  0.914588  -0.807421   0.000000 
  0.932602  -0.786545   0.000000 
  0.950139  -0.765268   0.000000 
  0.967191  -0.743600   0.000000 
  0.983749  -0.721552   0.000000 
  0.999805  -0.699136   0.000000 
  1.015349  -0.676362   0.000000 
  1.030375  -0.653243   0.000000 
  1.044875  -0.629790   0.000000 
  1.058841  -0.606016   0.000000 
  1.072267  -0.581932   0.000000 
  1.085144  -0.557550   0.000000 
  1.097467  -0.532884   0.000000 
  1.109230  -0.507946   0.000000 
  1.120426  -0.482748   0.000000 
  1.131049  -0.457304   0.000000 
  1.141095  -0.431626   0.000000 
  1.150559  -0.405728   0.000000 
  1.159434  -0.379622   0.000000 
  1.167717  -0.353323   0.000000 
  1.175404  -0.326843   0.000000 
  1.182490  -0.300196   0.000000 
  1.188972  -0.273395   0.000000 
  1.194847  -0.246455   0.000000 
  1.200112  -0.219390   0.000000 
  1.204763  -0.192212   0.000000 
  1.208800  -0.164936   0.000000 
  1.212218  -0.137575   0.000000 
  1.215018  -0.110145   0.000000 
  1.217197  -0.082658   0.000000 
  1.218754  -0.055129   0.000000 
  1.219688  -0.027571   0.000000 
  1.270000   0.000000   0.000000 
  1.269676   0.028701   0.000000 
  1.268703   0.057388   0.000000 
  1.267082   0.086045   0.000000 
  1.264814   0.114659   0.000000 
  1.261899   0.143214   0.000000 
  1.258340   0.171695   0.000000 
  1.254139   0.200089   0.000000 
  1.249297   0.228381   0.000000 
[...]
<CellData Scalars='scalars'>
<DataArray type='Float32' Name='p' Format='ascii'> 
-25337.841453
-25337.847637
-25337.806119
-25337.714447
-25337.592200
-25337.460022
-25337.327361
-25337.194097
-25337.055615
-25336.900922
-25336.721387
-25336.508634
-25336.259296
-25335.980786
-25335.689202
-25335.410942
-25335.169471
-25334.983161
-25334.860572
-25334.804070
-25334.813546
-25334.888971
-25335.030240
-25335.233647
-25335.487982
-25335.772943
-25336.062822
-25336.334863
-25336.573810
-25336.776639
-25336.947374
-25337.096235
-25337.232739
-25337.364923
-25337.499255
-25337.630223
-25337.745171
-25337.823899
-25337.847774
-25337.837747
-25337.844977
-25337.841703
-25337.783654
-25337.680381
-25337.553438
-25337.420152
-25337.287411
-25337.153488
-25337.010834
-25336.849990
-25336.661565
-25336.437898
-25336.178737
-25335.894156
-25335.604357
-25335.334396
-25335.107875
-25334.939721
-25334.836391
-25334.799034
-25334.827353
-25334.921588
-25335.081114
-25335.300620
-25335.565829
-25335.854662
-25336.141368
-25336.404553
-25336.633246
-25336.826417
-25336.990046
-25337.134355
-25337.269011
-25337.401934
-25337.535368
-25337.663737
-25337.771376
-25337.836223
-25337.845091
-25337.835996
-25337.846137
-25337.829197
-25337.756387
-25337.644661
-25337.514444
-25337.381112
-25337.248326
-25337.113084
-25336.966246
-25336.798421
-25336.600356
-25336.366912
-25336.099020
-25335.810733
-25335.523560
-25335.264127
-25335.052806
-25334.902898
-25334.818275
-25334.799707
-25334.846660
-25334.959588
-25335.136729
-25335.371413
-25335.645682
-25335.936289
-25336.218050
-25336.472208
-25336.690305
-25336.874114
-25337.031366
-25337.171974
-25337.305328
-25337.438478
-25337.571560
-25337.695888
-25337.793613
-25337.842999
-25337.840725
-25337.837315
-25337.845727
-25337.812804
-25337.726652
-25337.607872
-25337.475995
-25337.342913
-25337.210207
-25337.072441
-25336.920771
-25336.745432
-25336.537601
-25336.293464
-25336.017950
-25335.727412
-25335.445434
-25335.197813
-25335.003295
-25334.871748
-25334.806014
-25334.806082
-25334.871907
-25335.003534
-25335.198131
-25335.445707
-25335.727656
-25336.018274
-25336.293504
-25336.537652
-25336.745722
-25336.920936
-25337.072350
-25337.210036
-25337.342726
-25337.475910
-25337.607531
-25337.727038
-25337.812667
-25337.845841
-25337.837451
-25337.841134
-25337.843454
-25337.794190
-25337.696354
-25337.571287
-25337.438319
-25337.305374
-25337.172201
-25337.031457
-25336.874569
-25336.691147
-25336.471003
-25336.217732
-25335.935698
-25335.644807
-25335.370219
-25335.135922
-25334.958713
-25334.845759
-25334.798812
-25334.817525
-25334.902136
-25335.052180
-25335.263217
-25335.523014
-25335.809914
-25336.098543
-25336.366161
-25336.600311
-25336.798410
-25336.965928
-25337.112186
-25337.247757
-25337.380248
-25337.513762
-25337.643478
-25337.755619
-25337.828561
-25337.845182
-25337.835086
-25337.844181
-25337.835132
-25337.770603
-25337.662737
-25337.533992
-25337.401178
-25337.268153
-25337.133764
-25336.989006
-25336.825246
-25336.632041
-25336.403564
-25336.140379
-25335.853502
-25335.564942
-25335.299483
-25335.080181
-25334.920724
-25334.826591
-25334.798158
-25334.835618
-25334.938971
-25335.107119
-25335.333760
-25335.603786
-25335.893778
-25336.178550
-25336.437085
-25336.661054
-25336.849262
-25337.009845
-25337.152329
-25337.286411
-25337.419197
-25337.552916
-25337.679358
-25337.782779
-25337.840304
-25337.843761
-25337.836814
-25337.846773
-25337.822842
-25337.744569
-25337.628563
-25337.497073
-25337.364059
-25337.230932
-25337.094576
-25336.945714
-25336.774468
-25336.571798
-25336.332965
-25336.061810
-25335.772102
-25335.487487
-25335.233579
-25335.030460
-25334.889392
-25334.813927
-25334.804047
-25334.859743
-25334.981001
-25335.165719
-25335.405735
-25335.683199
-25335.974033
-25336.252952
-25336.502665
-25336.716203
-25336.896056
-25337.050579
-25337.190255
-25337.323405
-25337.456782
-25337.589568
-25337.711924
-25337.804300
-25337.846091
-25337.839088
-75331.090511
-75331.193830
-75331.263270
-75331.263542
-75331.238794
-75331.207844
-75331.172781
-75331.130751
-75331.084474
-75331.034810
-75330.979189
-75330.911000
-75330.817617
-75330.694972
-75330.542040
-75330.371226
-75330.198013
-75330.045320
-75329.932918
-75329.877632
-75329.887210
-75329.960039
-75330.086025
-75330.246942
-75330.421575
-75330.589053
-75330.733512
-75330.847767
-75330.932685
-75330.996333
-75331.049192
-75331.097923
-75331.143989
-75331.183143
-75331.218034
-75331.246205
-75331.267929
-75331.250594
-75331.164476
-75331.070070
-75331.120752
-75331.221501
-75331.269380
-75331.257256
-75331.230119
-75331.198070
-75331.161349
-75331.117318
-75331.069843
-75331.018581
-75330.960283
-75330.885841
-75330.784546
-75330.651572
-75330.492277
-75330.318316
-75330.148763
-75330.005592
-75329.908447
-75329.871152
-75329.899568
-75329.989289
-75330.127402
-75330.294294
-75330.469053
-75330.632035
-75330.767868
-75330.873244
-75330.951637
-75331.010817
-75331.062482
-75331.109946
-75331.154596
-75331.192676
-75331.225023
-75331.253009
-75331.268687
-75331.230437
-75331.133166
-75331.064591
-75331.149856
-75331.241919
-75331.268022
-75331.249246
-75331.219915
-75331.186918
-75331.147309
-75331.102425
-75331.054393
-75331.001665
-75330.940228
-75330.858317
-75330.748837
-75330.607876
-75330.442792
-75330.267794
-75330.103488
-75329.971355
-75329.890171
-75329.871498
-75329.918036
-75330.023049
-75330.171524
-75330.342952
-75330.515944
-75330.671854
-75330.799706
-75330.896641
-75330.968184
-75331.024743
-75331.074822
-75331.121877
-75331.164999
-75331.201265
-75331.232654
-75331.258483
-75331.264452
-75331.205517
-75331.103289
-75331.077664
-75331.178346
-75331.255499
-75331.263696
-75331.240475
-75331.210178
-75331.175424
-75331.134633
-75331.088635
-75331.039295
-75330.985351
-75330.918753
-75330.830362
-75330.710808
-75330.562595
-75330.392508
-75330.218652
-75330.061514
-75329.942132
-75329.877910
-75329.877978
-75329.942297
-75330.061446
-75330.218658
-75330.392758
-75330.562493
-75330.710990
-75330.830060
-75330.918844
-75330.985186
-75331.039335
-75331.088232
-75331.134542
-75331.175316
-75331.210058
-75331.240345
-75331.263565
-75331.255562
-75331.178334
-75331.077926
-75331.103517
-75331.205312
-75331.265060
-75331.258893
-75331.232529
-75331.201560
-75331.164794
-75331.122252
-75331.074822
-75331.025437
-75330.967178
-75330.892111
-75330.795892
-75330.670529
-75330.514420
-75330.341889
-75330.170429
-75330.022182
-75329.917195
-75329.870737
-75329.889432
-75329.970798
-75330.102703
-75330.267077
-75330.441825
-75330.607342
-75330.747575
-75330.858226
-75330.939069
-75331.001199
-75331.053517
-75331.101721
-75331.147332
-75331.186235
-75331.219307
-75331.247126
-75331.267033
-75331.240623
-75331.148946
-75331.063181
-75331.132598
-75331.229891
-75331.267442
-75331.251617
-75331.224718
-75331.191334
-75331.153852
-75331.109008
-75331.061424
-75331.009839
-75330.950040
-75330.872255
-75330.766697
-75330.630330
-75330.467962
-75330.293464
-75330.126236
-75329.988243
-75329.898613
-75329.870293
-75329.907509
-75330.004736
-75330.148013
-75330.317594
-75330.491899
-75330.651231
-75330.783719
-75330.884815
-75330.959993
-75331.018260
-75331.068717
-75331.116255
-75331.159996
-75331.196922
-75331.229345
-75331.256045
-75331.268035
-75331.219836
-75331.119592
-75331.069047
-75331.163634
-75331.249388
-75331.266385
-75331.246757
-75331.215976
-75331.181802
-75331.141522
-75331.096014
-75331.047930
-75330.994412
-75330.930730
-75330.845630
-75330.731786
-75330.587032
-75330.419411
-75330.244707
-75330.083646
-75329.957227
-75329.883850
-75329.873630
-75329.928376
-75330.040022
-75330.192544
-75330.365132
-75330.537015
-75330.689890
-75330.814082
-75330.907259
-75330.976779
-75331.032383
-75331.082178
-75331.128630
-75331.171354
-75331.206338
-75331.237471
-75331.262667
-75331.262883
-75331.194034
-75331.091148
-125324.805151
-125324.885073
-125324.952228
-125324.978023
-125324.995739
-125325.022289
-125325.055690
-125325.090971
-125325.118913
-125325.134525
-125325.132865
-125325.109207
-125325.066858
-125325.017814
-125324.976801
-125324.951642
-125324.925068
-125324.890584
-125324.855924
-125324.835938
-125324.839455
-125324.865100
-125324.901302
-125324.933285
-125324.957384
-125324.986629
-125325.031081
-125325.079807
-125325.117403
-125325.134906
-125325.130705
-125325.110923
-125325.079966
-125325.045474
-125325.012209
-125324.988983
-125324.970952
-125324.938210
-125324.854844
-125324.800570
-125324.818782
-125324.910960
-125324.960999
-125324.982440
-125325.001068
-125325.031308
-125325.065517
-125325.099407
-125325.124247
-125325.135713
-125325.127607
-125325.097932
-125325.052112
-125325.003881
-125324.967794
-125324.943360
-125324.914526
-125324.878368
-125324.846252
-125324.832558
-125324.842978
-125324.873216
-125324.909396
-125324.939361
-125324.963000
-125324.996935
-125325.044337
-125325.091199
-125325.123651
-125325.134917
-125325.125134
-125325.102130
-125325.068637
-125325.034452
-125325.003160
-125324.983418
-125324.963051
-125324.919509
-125324.826558
-125324.798864
-125324.840565
-125324.930104
-125324.967206
-125324.985825
-125325.006582
-125325.039858
-125325.073873
-125325.106552
-125325.127289
-125325.134644
-125325.119814
-125325.084798
-125325.036447
-125324.990495
-125324.958998
-125324.934862
-125324.903439
-125324.866877
-125324.838802
-125324.831802
-125324.848804
-125324.882430
-125324.917903
-125324.945321
-125324.970196
-125325.008520
-125325.057445
-125325.101351
-125325.128408
-125325.133058
-125325.119222
-125325.092563
-125325.058241
-125325.024101
-125324.995787
-125324.977640
-125324.954570
-125324.895998
-125324.808414
-125324.800456
-125324.868168
-125324.944111
-125324.972265
-125324.990387
-125325.014687
-125325.048657
-125325.083354
-125325.112890
-125325.130739
-125325.131967
-125325.111389
-125325.071156
-125325.022066
-125324.979183
-125324.951858
-125324.926633
-125324.892579
-125324.857090
-125324.834103
-125324.834130
-125324.857042
-125324.892655
-125324.926455
-125324.951765
-125324.979348
-125325.022128
-125325.071042
-125325.111247
-125325.131933
-125325.130665
-125325.112867
-125325.083229
-125325.048487
-125325.015460
-125324.990228
-125324.972441
-125324.943872
-125324.869123
-125324.800410
-125324.808232
-125324.896476
-125324.954990
-125324.976652
-125324.996236
-125325.024021
-125325.058707
-125325.092290
-125325.119677
-125325.132439
-125325.129119
-125325.099577
-125325.058019
-125325.006820
-125324.969588
-125324.943963
-125324.917065
-125324.881265
-125324.847966
-125324.831060
-125324.838058
-125324.866076
-125324.902626
-125324.933941
-125324.958020
-125324.989608
-125325.035901
-125325.083866
-125325.119257
-125325.133683
-125325.126771
-125325.105597
-125325.073395
-125325.038948
-125325.006499
-125324.985329
-125324.966052
-125324.928945
-125324.840019
-125324.797614
-125324.825376
-125324.917951
-125324.961851
-125324.982338
-125325.002102
-125325.033537
-125325.068080
-125325.101180
-125325.124418
-125325.133905
-125325.122661
-125325.090232
-125325.043280
-125324.995969
-125324.962374
-125324.938421
-125324.908498
-125324.872039
-125324.841611
-125324.832254
-125324.845317
-125324.877399
-125324.913398
-125324.942979
-125324.967081
-125325.003107
-125325.051459
-125325.096960
-125325.126774
-125325.134775
-125325.123139
-125325.098338
-125325.064482
-125325.029524
-125324.998896
-125324.981161
-125324.959856
-125324.909664
-125324.817600
-125324.799637
-125324.853570
-125324.937289
-125324.969903
-125324.988301
-125325.010322
-125325.044235
-125325.078420
-125325.110389
-125325.129312
-125325.133627
-125325.115994
-125325.078619
-125325.029947
-125324.985532
-125324.956127
-125324.931565
-125324.898795
-125324.862381
-125324.836483
-125324.832663
-125324.852576
-125324.887449
-125324.922789
-125324.949687
-125324.975875
-125325.016825
-125325.065767
-125325.108286
-125325.132103
-125325.134081
-125325.118142
-125325.090303
-125325.055477
-125325.021577
-125324.994616
-125324.977239
-125324.951205
-125324.885209
-125324.805481
-175318.624645
-175318.639390
-175318.663105
-175318.689756
-175318.718607
-175318.753540
-175318.797494
-175318.846422
-175318.891280
-175318.920239
-175318.924136
-175318.905349
-175318.876973
-175318.888671
-175319.002182
-175319.201969
-175319.402402
-175319.538729
-175319.606848
-175319.630759
-175319.627260
-175319.592751
-175319.507042
-175319.349188
-175319.139424
-175318.956894
-175318.875472
-175318.882810
-175318.911431
-175318.923937
-175318.912704
-175318.877746
-175318.831054
-175318.781658
-175318.741378
-175318.707684
-175318.680010
-175318.654237
-175318.632500
-175318.624747
-175318.625088
-175318.644324
-175318.669869
-175318.695011
-175318.727099
-175318.763468
-175318.810466
-175318.858794
-175318.901108
-175318.922737
-175318.920100
-175318.895572
-175318.872266
-175318.908850
-175319.054222
-175319.263627
-175319.448800
-175319.563363
-175319.615775
-175319.630628
-175319.619419
-175319.573147
-175319.468228
-175319.290807
-175319.079281
-175318.920884
-175318.870436
-175318.889751
-175318.916050
-175318.922200
-175318.903879
-175318.863523
-175318.815587
-175318.767674
-175318.730135
-175318.697495
-175318.671711
-175318.645574
-175318.625861
-175318.623565
-175318.628794
-175318.649576
-175318.675701
-175318.702190
-175318.735694
-175318.774529
-175318.823455
-175318.870600
-175318.908629
-175318.922959
-175318.913631
-175318.885658
-175318.871936
-175318.937784
-175319.109553
-175319.320579
-175319.487786
-175319.582083
-175319.621869
-175319.628917
-175319.609666
-175319.549234
-175319.423710
-175319.230021
-175319.024459
-175318.894867
-175318.871652
-175318.898181
-175318.919776
-175318.919173
-175318.893582
-175318.849949
-175318.801007
-175318.755544
-175318.719906
-175318.689270
-175318.663878
-175318.639413
-175318.622087
-175318.622087
-175318.634183
-175318.656420
-175318.682574
-175318.710816
-175318.745352
-175318.787569
-175318.836864
-175318.882737
-175318.914813
-175318.922379
-175318.906497
-175318.877433
-175318.878809
-175318.977142
-175319.169335
-175319.374767
-175319.521284
-175319.597344
-175319.626105
-175319.626221
-175319.597251
-175319.521105
-175319.374711
-175319.168960
-175318.976858
-175318.879076
-175318.877689
-175318.906423
-175318.922425
-175318.914859
-175318.882748
-175318.836637
-175318.787683
-175318.745255
-175318.710956
-175318.682381
-175318.656727
-175318.634069
-175318.622473
-175318.622144
-175318.639708
-175318.664174
-175318.689810
-175318.719837
-175318.756112
-175318.800893
-175318.850370
-175318.893127
-175318.920390
-175318.918679
-175318.898397
-175318.870356
-175318.895521
-175319.023441
-175319.229851
-175319.422908
-175319.548663
-175319.608684
-175319.628238
-175319.620888
-175319.581285
-175319.486789
-175319.319695
-175319.108598
-175318.937085
-175318.871004
-175318.885181
-175318.912733
-175318.922459
-175318.907822
-175318.869964
-175318.822573
-175318.773825
-175318.734864
-175318.701446
-175318.674769
-175318.647348
-175318.627760
-175318.622803
-175318.625816
-175318.644187
-175318.670762
-175318.696157
-175318.729151
-175318.766810
-175318.814979
-175318.862773
-175318.903177
-175318.921382
-175318.915345
-175318.889171
-175318.869628
-175318.919980
-175319.078667
-175319.290121
-175319.467370
-175319.572125
-175319.618680
-175319.629781
-175319.614942
-175319.562356
-175319.448147
-175319.262780
-175319.053176
-175318.908066
-175318.871271
-175318.894711
-175318.918917
-175318.921885
-175318.899880
-175318.857725
-175318.809227
-175318.762410
-175318.725809
-175318.694113
-175318.668516
-175318.643232
-175318.623815
-175318.623610
-175318.631386
-175318.653078
-175318.679027
-175318.706157
-175318.740457
-175318.780396
-175318.830009
-175318.876484
-175318.912022
-175318.922970
-175318.910641
-175318.881708
-175318.874739
-175318.955826
-175319.138486
-175319.347704
-175319.505212
-175319.590397
-175319.624645
-175319.628394
-175319.605114
-175319.538377
-175319.404200
-175319.205414
-175319.005587
-175318.889978
-175318.877405
-175318.905048
-175318.924499
-175318.920489
-175318.892130
-175318.846846
-175318.797960
-175318.753277
-175318.718465
-175318.688025
-175318.662968
-175318.638367
-175318.624019
-225312.328348
-225312.329906
-225312.337363
-225312.350628
-225312.372766
-225312.395833
-225312.419698
-225312.442839
-225312.464022
-225312.480967
-225312.495570
-225312.513840
-225312.569052
-225312.722409
-225313.026863
-225313.458397
-225313.881461
-225314.181390
-225314.346517
-225314.411938
-225314.401212
-225314.310526
-225314.109852
-225313.768942
-225313.327257
-225312.921737
-225312.663002
-225312.544381
-225312.504477
-225312.489596
-225312.474333
-225312.456473
-225312.433844
-225312.410862
-225312.386681
-225312.363830
-225312.342752
-225312.333055
-225312.325688
-225312.328030
-225312.324937
-225312.330758
-225312.336988
-225312.355178
-225312.376563
-225312.401483
-225312.424209
-225312.448219
-225312.467575
-225312.484244
-225312.497793
-225312.522286
-225312.599048
-225312.793248
-225313.142835
-225313.588601
-225313.982656
-225314.240618
-225314.372597
-225314.414752
-225314.382720
-225314.264679
-225314.025602
-225313.647428
-225313.199616
-225312.830139
-225312.615680
-225312.526675
-225312.497957
-225312.484642
-225312.468116
-225312.449564
-225312.425826
-225312.403197
-225312.378271
-225312.356656
-225312.336897
-225312.330451
-225312.323505
-225312.327120
-225312.323892
-225312.331418
-225312.339199
-225312.360257
-225312.382130
-225312.407142
-225312.429791
-225312.453193
-225312.471147
-225312.487169
-225312.500942
-225312.535053
-225312.638213
-225312.875523
-225313.264268
-225313.710459
-225314.069321
-225314.288043
-225314.391388
-225314.412161
-225314.358362
-225314.210108
-225313.930662
-225313.520710
-225313.080307
-225312.753031
-225312.580102
-225312.514669
-225312.493740
-225312.479961
-225312.463039
-225312.442672
-225312.419087
-225312.395776
-225312.371475
-225312.349880
-225312.333885
-225312.327620
-225312.324505
-225312.325892
-225312.325915
-225312.332179
-225312.344332
-225312.365978
-225312.388983
-225312.413141
-225312.436442
-225312.458406
-225312.475874
-225312.490522
-225312.506859
-225312.553971
-225312.689713
-225312.971975
-225313.392059
-225313.825467
-225314.145189
-225314.327287
-225314.404707
-225314.404591
-225314.326897
-225314.144859
-225313.825229
-225313.391906
-225312.971605
-225312.689560
-225312.553732
-225312.506865
-225312.490410
-225312.475837
-225312.458309
-225312.436555
-225312.413090
-225312.389145
-225312.366013
-225312.344361
-225312.332702
-225312.325415
-225312.325824
-225312.324460
-225312.327825
-225312.334328
-225312.349937
-225312.372172
-225312.395722
-225312.419713
-225312.442558
-225312.463738
-225312.479455
-225312.494581
-225312.513982
-225312.581085
-225312.751917
-225313.080762
-225313.519778
-225313.930389
-225314.208873
-225314.357601
-225314.411239
-225314.390553
-225314.287067
-225314.068400
-225313.709389
-225313.263340
-225312.874520
-225312.637571
-225312.533985
-225312.500532
-225312.486316
-225312.470485
-225312.452386
-225312.429075
-225312.406059
-225312.381357
-225312.359527
-225312.338739
-225312.330235
-225312.322709
-225312.326120
-225312.322937
-225312.329258
-225312.336011
-225312.355553
-225312.377263
-225312.401867
-225312.425428
-225312.448794
-225312.467398
-225312.483883
-225312.497332
-225312.525890
-225312.614941
-225312.829446
-225313.198911
-225313.646632
-225314.024900
-225314.263946
-225314.381899
-225314.413956
-225314.371755
-225314.239697
-225313.981809
-225313.587634
-225313.141925
-225312.792111
-225312.598263
-225312.521303
-225312.496895
-225312.483224
-225312.466608
-225312.447083
-225312.423299
-225312.400181
-225312.375645
-225312.353916
-225312.336022
-225312.329690
-225312.324278
-225312.327143
-225312.324801
-225312.332122
-225312.341479
-225312.363185
-225312.385399
-225312.410259
-225312.432809
-225312.455819
-225312.473248
-225312.488931
-225312.503568
-225312.543643
-225312.661701
-225312.920691