<VTKFile type='UnstructuredGrid' version='0.1' byte_order='BigEndian'> 
<UnstructuredGrid> 
<Piece NumberOfPoints='  2601 ' NumberOfCells='   625 '> 
<Points> 
<DataArray type='Float32' NumberOfComponents='3' Format='ascii'> 
0.000000e+00 0.000000e+00 0.000000e+00 
1.018814e+04 0.000000e+00 0.000000e+00 
2.037319e+04 0.000000e+00 0.000000e+00 
3.055216e+04 0.000000e+00 0.000000e+00 
4.072206e+04 0.000000e+00 0.000000e+00 
5.088024e+04 0.000000e+00 0.000000e+00 
6.102404e+04 0.000000e+00 0.000000e+00 
7.115131e+04 0.000000e+00 0.000000e+00 
8.125989e+04 0.000000e+00 0.000000e+00 
9.134828e+04 0.000000e+00 0.000000e+00 
1.014150e+05 0.000000e+00 0.000000e+00 
1.114592e+05 0.000000e+00 0.000000e+00 
1.214801e+05 0.000000e+00 0.000000e+00 
1.314777e+05 0.000000e+00 0.000000e+00 
1.414520e+05 0.000000e+00 0.000000e+00 
1.514037e+05 0.000000e+00 0.000000e+00 
1.613334e+05 0.000000e+00 0.000000e+00 
1.712425e+05 0.000000e+00 0.000000e+00 
1.811323e+05 0.000000e+00 0.000000e+00 
1.910048e+05 0.000000e+00 0.000000e+00 
2.008619e+05 0.000000e+00 0.000000e+00 
2.107058e+05 0.000000e+00 0.000000e+00 
2.205389e+05 0.000000e+00 0.000000e+00 
2.303639e+05 0.000000e+00 0.000000e+00 
2.401833e+05 0.000000e+00 0.000000e+00 
2.500000e+05 0.000000e+00 0.000000e+00 
2.598167e+05 0.000000e+00 0.000000e+00 
2.696361e+05 0.000000e+00 0.000000e+00 
2.794611e+05 0.000000e+00 0.000000e+00 
2.892942e+05 0.000000e+00 0.000000e+00 
2.991381e+05 0.000000e+00 0.000000e+00 
3.089952e+05 0.000000e+00 0.000000e+00 
3.188677e+05 0.000000e+00 0.000000e+00 
3.287575e+05 0.000000e+00 0.000000e+00 
3.386666e+05 0.000000e+00 0.000000e+00 
3.485963e+05 0.000000e+00 0.000000e+00 
3.585480e+05 0.000000e+00 0.000000e+00 
3.685223e+05 0.000000e+00 0.000000e+00 
3.785199e+05 0.000000e+00 0.000000e+00 
3.885408e+05 0.000000e+00 0.000000e+00 
3.985850e+05 0.000000e+00 0.000000e+00 
4.086517e+05 0.000000e+00 0.000000e+00 
4.187401e+05 0.000000e+00 0.000000e+00 
4.288487e+05 0.000000e+00 0.000000e+00 
4.389760e+05 0.000000e+00 0.000000e+00 
4.491198e+05 0.000000e+00 0.000000e+00 
4.592779e+05 0.000000e+00 0.000000e+00 
4.694478e+05 0.000000e+00 0.000000e+00 
4.796268e+05 0.000000e+00 0.000000e+00 
4.898119e+05 0.000000e+00 0.000000e+00 
5.000000e+05 0.000000e+00 0.000000e+00 
0.000000e+00 9.692457e+03 0.000000e+00 
1.018957e+04 9.697215e+03 0.000000e+00 
2.037593e+04 9.702141e+03 0.000000e+00 
3.055637e+04 9.716291e+03 0.000000e+00 
4.072740e+04 9.730601e+03 0.000000e+00 
5.088704e+04 9.753279e+03 0.000000e+00 
6.103172e+04 9.776097e+03 0.000000e+00 
7.116034e+04 9.805911e+03 0.000000e+00 
8.126950e+04 9.835840e+03 0.000000e+00 
9.135905e+04 9.870951e+03 0.000000e+00 
1.014260e+05 9.906146e+03 0.000000e+00 
1.114711e+05 9.944375e+03 0.000000e+00 
1.214918e+05 9.982651e+03 0.000000e+00 
1.314900e+05 1.002161e+04 0.000000e+00 
1.414638e+05 1.006058e+04 0.000000e+00 
1.514156e+05 1.009781e+04 0.000000e+00 
1.613444e+05 1.013501e+04 0.000000e+00 
1.712532e+05 1.016817e+04 0.000000e+00 
1.811418e+05 1.020124e+04 0.000000e+00 
1.910136e+05 1.022821e+04 0.000000e+00 
2.008691e+05 1.025504e+04 0.000000e+00 
2.107120e+05 1.027409e+04 0.000000e+00 
2.205435e+05 1.029296e+04 0.000000e+00 
2.303671e+05 1.030285e+04 0.000000e+00 
2.401849e+05 1.031254e+04 0.000000e+00 
2.500000e+05 1.031265e+04 0.000000e+00 
2.598151e+05 1.031254e+04 0.000000e+00 
2.696329e+05 1.030285e+04 0.000000e+00 
2.794565e+05 1.029296e+04 0.000000e+00 
2.892880e+05 1.027409e+04 0.000000e+00 
2.991309e+05 1.025504e+04 0.000000e+00 
3.089864e+05 1.022821e+04 0.000000e+00 
3.188582e+05 1.020124e+04 0.000000e+00 
3.287468e+05 1.016817e+04 0.000000e+00 
3.386556e+05 1.013501e+04 0.000000e+00 
3.485844e+05 1.009781e+04 0.000000e+00 
3.585362e+05 1.006058e+04 0.000000e+00 
3.685100e+05 1.002161e+04 0.000000e+00 
3.785082e+05 9.982651e+03 0.000000e+00 
3.885289e+05 9.944375e+03 0.000000e+00 
3.985740e+05 9.906146e+03 0.000000e+00 
4.086410e+05 9.870951e+03 0.000000e+00 
4.187305e+05 9.835840e+03 0.000000e+00 
4.288397e+05 9.805911e+03 0.000000e+00 
4.389683e+05 9.776097e+03 0.000000e+00 
4.491130e+05 9.753279e+03 0.000000e+00 
4.592726e+05 9.730601e+03 0.000000e+00 
4.694436e+05 9.716291e+03 0.000000e+00 
4.796241e+05 9.702141e+03 0.000000e+00 
4.898104e+05 9.697215e+03 0.000000e+00 
5.000000e+05 9.692457e+03 0.000000e+00 
0.000000e+00 1.936834e+04 0.000000e+00 
1.019160e+04 1.937798e+04 0.000000e+00 
2.037972e+04 1.938831e+04 0.000000e+00 
3.056233e+04 1.941733e+04 0.000000e+00 
4.073472e+04 1.944700e+04 0.000000e+00 
5.089652e+04 1.949360e+04 0.000000e+00 
6.104206e+04 1.954077e+04 0.000000e+00 
7.117270e+04 1.960205e+04 0.000000e+00 
8.128216e+04 1.966379e+04 0.000000e+00 
9.137348e+04 1.973594e+04 0.000000e+00 
1.014401e+05 1.980838e+04 0.000000e+00 
1.114866e+05 1.988686e+04 0.000000e+00 
1.215066e+05 1.996546e+04 0.000000e+00 
1.315057e+05 2.004534e+04 0.000000e+00 
1.414782e+05 2.012514e+04 0.000000e+00 
1.514305e+05 2.020137e+04 0.000000e+00 
1.613576e+05 2.027733e+04 0.000000e+00 
1.712664e+05 2.034508e+04 0.000000e+00 
1.811530e+05 2.041240e+04 0.000000e+00 
1.910243e+05 2.046741e+04 0.000000e+00 
2.008777e+05 2.052186e+04 0.000000e+00 
2.107195e+05 2.056067e+04 0.000000e+00 
2.205489e+05 2.059885e+04 0.000000e+00 
2.303710e+05 2.061905e+04 0.000000e+00 
2.401867e+05 2.063857e+04 0.000000e+00 
2.500000e+05 2.063891e+04 0.000000e+00 
2.598133e+05 2.063857e+04 0.000000e+00 
2.696290e+05 2.061905e+04 0.000000e+00 
2.794511e+05 2.059885e+04 0.000000e+00 
2.892805e+05 2.056067e+04 0.000000e+00 
2.991223e+05 2.052186e+04 0.000000e+00 
3.089757e+05 2.046741e+04 0.000000e+00 
3.188470e+05 2.041240e+04 0.000000e+00 
3.287336e+05 2.034508e+04 0.000000e+00 
3.386424e+05 2.027733e+04 0.000000e+00 
3.485695e+05 2.020137e+04 0.000000e+00 
3.585218e+05 2.012514e+04 0.000000e+00 
3.684943e+05 2.004534e+04 0.000000e+00 
3.784934e+05 1.996546e+04 0.000000e+00 
3.885134e+05 1.988686e+04 0.000000e+00 
3.985599e+05 1.980838e+04 0.000000e+00 
4.086265e+05 1.973594e+04 0.000000e+00 
4.187178e+05 1.966379e+04 0.000000e+00 
4.288273e+05 1.960205e+04 0.000000e+00 
4.389579e+05 1.954077e+04 0.000000e+00 
4.491035e+05 1.949360e+04 0.000000e+00 
4.592653e+05 1.944700e+04 0.000000e+00 
4.694377e+05 1.941733e+04 0.000000e+00 
4.796203e+05 1.938831e+04 0.000000e+00 
4.898084e+05 1.937798e+04 0.000000e+00 
5.000000e+05 1.936834e+04 0.000000e+00 
0.000000e+00 2.906538e+04 0.000000e+00 
1.019673e+04 2.907926e+04 0.000000e+00 
2.038946e+04 2.909483e+04 0.000000e+00 
3.057741e+04 2.913732e+04 0.000000e+00 
4.075364e+04 2.918140e+04 0.000000e+00 
5.092069e+04 2.924990e+04 0.000000e+00 
6.106906e+04 2.931979e+04 0.000000e+00 
7.120454e+04 2.941009e+04 0.000000e+00 
8.131565e+04 2.950150e+04 0.000000e+00 
9.141108e+04 2.960802e+04 0.000000e+00 
1.014781e+05 2.971530e+04 0.000000e+00 
1.115277e+05 2.983144e+04 0.000000e+00 
1.215466e+05 2.994792e+04 0.000000e+00 
1.315477e+05 3.006641e+04 0.000000e+00 
1.415177e+05 3.018480e+04 0.000000e+00 
1.514706e+05 3.029818e+04 0.000000e+00 
1.613941e+05 3.041102e+04 0.000000e+00 
1.713021e+05 3.051211e+04 0.000000e+00 
1.811842e+05 3.061223e+04 0.000000e+00 
1.910533e+05 3.069459e+04 0.000000e+00 
2.009015e+05 3.077562e+04 0.000000e+00 
2.107399e+05 3.083398e+04 0.000000e+00 
2.205638e+05 3.089073e+04 0.000000e+00 
2.303815e+05 3.092136e+04 0.000000e+00 
2.401918e+05 3.095020e+04 0.000000e+00 
2.500000e+05 3.095112e+04 0.000000e+00 
2.598082e+05 3.095020e+04 0.000000e+00 
2.696185e+05 3.092136e+04 0.000000e+00 
2.794362e+05 3.089073e+04 0.000000e+00 
2.892601e+05 3.083398e+04 0.000000e+00 
2.990985e+05 3.077562e+04 0.000000e+00 
3.089467e+05 3.069459e+04 0.000000e+00 
3.188158e+05 3.061223e+04 0.000000e+00 
3.286979e+05 3.051211e+04 0.000000e+00 
3.386059e+05 3.041102e+04 0.000000e+00 
3.485294e+05 3.029818e+04 0.000000e+00 
3.584823e+05 3.018480e+04 0.000000e+00 
3.684523e+05 3.006641e+04 0.000000e+00 
3.784534e+05 2.994792e+04 0.000000e+00 
3.884723e+05 2.983144e+04 0.000000e+00 
3.985219e+05 2.971530e+04 0.000000e+00 
4.085889e+05 2.960802e+04 0.000000e+00 
4.186844e+05 2.950150e+04 0.000000e+00 
4.287955e+05 2.941009e+04 0.000000e+00 
4.389309e+05 2.931979e+04 0.000000e+00 
4.490793e+05 2.924990e+04 0.000000e+00 
4.592464e+05 2.918140e+04 0.000000e+00 
4.694226e+05 2.913732e+04 0.000000e+00 
4.796105e+05 2.909483e+04 0.000000e+00 
4.898033e+05 2.907926e+04 0.000000e+00 
5.000000e+05 2.906538e+04 0.000000e+00 
0.000000e+00 3.874668e+04 0.000000e+00 
1.020201e+04 3.876502e+04 0.000000e+00 
2.039941e+04 3.878625e+04 0.000000e+00 
3.059294e+04 3.884304e+04 0.000000e+00 
4.077293e+04 3.890253e+04 0.000000e+00 
5.094550e+04 3.899426e+04 0.000000e+00 
6.109648e+04 3.908835e+04 0.000000e+00 
7.123710e+04 3.920935e+04 0.000000e+00 
8.134950e+04 3.933221e+04 0.000000e+00 
9.144940e+04 3.947497e+04 0.000000e+00 
1.015163e+05 3.961896e+04 0.000000e+00 
1.115694e+05 3.977457e+04 0.000000e+00 
1.215868e+05 3.993069e+04 0.000000e+00 
1.315902e+05 4.008937e+04 0.000000e+00 
1.415575e+05 4.024781e+04 0.000000e+00 
1.515114e+05 4.039954e+04 0.000000e+00 
1.614310e+05 4.055030e+04 0.000000e+00 
1.713385e+05 4.068549e+04 0.000000e+00 
1.812157e+05 4.081904e+04 0.000000e+00 
1.910830e+05 4.092911e+04 0.000000e+00 
2.009257e+05 4.103701e+04 0.000000e+00 
2.107610e+05 4.111500e+04 0.000000e+00 
2.205790e+05 4.119042e+04 0.000000e+00 
2.303924e+05 4.123142e+04 0.000000e+00 
2.401970e+05 4.126962e+04 0.000000e+00 
2.500000e+05 4.127106e+04 0.000000e+00 
2.598030e+05 4.126962e+04 0.000000e+00 
2.696076e+05 4.123142e+04 0.000000e+00 
2.794210e+05 4.119042e+04 0.000000e+00 
2.892390e+05 4.111500e+04 0.000000e+00 
2.990743e+05 4.103701e+04 0.000000e+00 
3.089170e+05 4.092911e+04 0.000000e+00 
3.187843e+05 4.081904e+04 0.000000e+00 
3.286615e+05 4.068549e+04 0.000000e+00 
3.385690e+05 4.055030e+04 0.000000e+00 
3.484886e+05 4.039954e+04 0.000000e+00 
3.584425e+05 4.024781e+04 0.000000e+00 
3.684098e+05 4.008937e+04 0.000000e+00 
3.784132e+05 3.993069e+04 0.000000e+00 
3.884306e+05 3.977457e+04 0.000000e+00 
[...]
<CellData Scalars='scalars'>
<DataArray type='Float32' Name='volume' Format='ascii'> 
3.948499e+08 
3.951760e+08 
3.958071e+08 
3.967027e+08 
3.978051e+08 
3.990436e+08 
4.003391e+08 
4.016094e+08 
4.027746e+08 
4.037626e+08 
4.045135e+08 
4.049824e+08 
4.051418e+08 
4.049824e+08 
4.045135e+08 
4.037626e+08 
4.027746e+08 
4.016094e+08 
4.003391e+08 
3.990436e+08 
3.978051e+08 
3.967027e+08 
3.958071e+08 
3.951760e+08 
3.948499e+08 
3.952991e+08 
3.955932e+08 
3.961630e+08 
3.969728e+08 
3.979720e+08 
3.990979e+08 
4.002803e+08 
4.014450e+08 
4.025189e+08 
4.034342e+08 
4.041331e+08 
4.045712e+08 
4.047203e+08 
4.045712e+08 
4.041331e+08 
4.034342e+08 
4.025189e+08 
4.014450e+08 
4.002803e+08 
3.990979e+08 
3.979720e+08 
3.969728e+08 
3.961630e+08 
3.955932e+08 
3.952991e+08 
3.948752e+08 
3.951987e+08 
3.958251e+08 
3.967140e+08 
3.978082e+08 
3.990373e+08 
4.003219e+08 
4.015798e+08 
4.027310e+08 
4.037042e+08 
4.044413e+08 
4.049001e+08 
4.050558e+08 
4.049001e+08 
4.044413e+08 
4.037042e+08 
4.027310e+08 
4.015798e+08 
4.003219e+08 
3.990373e+08 
3.978082e+08 
3.967140e+08 
3.958251e+08 
3.951987e+08 
3.948752e+08 
3.953513e+08 
3.956436e+08 
3.962094e+08 
3.970123e+08 
3.980007e+08 
3.991104e+08 
4.002697e+08 
4.014034e+08 
4.024391e+08 
4.033124e+08 
4.039716e+08 
4.043807e+08 
4.045193e+08 
4.043807e+08 
4.039716e+08 
4.033124e+08 
4.024391e+08 
4.014034e+08 
4.002697e+08 
3.991104e+08 
3.980007e+08 
3.970123e+08 
3.962094e+08 
3.956436e+08 
3.953513e+08 
3.950209e+08 
3.953366e+08 
3.959475e+08 
3.968141e+08 
3.978798e+08 
3.990745e+08 
4.003196e+08 
4.015336e+08 
4.026385e+08 
4.035663e+08 
4.042640e+08 
4.046957e+08 
4.048416e+08 
4.046957e+08 
4.042640e+08 
4.035663e+08 
4.026385e+08 
4.015336e+08 
4.003196e+08 
3.990745e+08 
3.978798e+08 
3.968141e+08 
3.959475e+08 
3.953366e+08 
3.950209e+08 
3.954789e+08 
3.957651e+08 
3.963191e+08 
3.971054e+08 
3.980732e+08 
3.991600e+08 
4.002961e+08 
4.014086e+08 
4.024277e+08 
4.032905e+08 
4.039453e+08 
4.043537e+08 
4.044924e+08 
4.043537e+08 
4.039453e+08 
4.032905e+08 
4.024277e+08 
4.014086e+08 
4.002961e+08 
3.991600e+08 
3.980732e+08 
3.971054e+08 
3.963191e+08 
3.957651e+08 
3.954789e+08 
3.950495e+08 
3.953600e+08 
3.959619e+08 
3.968184e+08 
3.978766e+08 
3.990708e+08 
4.003264e+08 
4.015644e+08 
4.027069e+08 
4.036816e+08 
4.044263e+08 
4.048934e+08 
4.050525e+08 
4.048934e+08 
4.044263e+08 
4.036816e+08 
4.027069e+08 
4.015644e+08 
4.003264e+08 
3.990708e+08 
3.978766e+08 
3.968184e+08 
3.959619e+08 
3.953600e+08 
3.950495e+08 
3.953014e+08 
3.955939e+08 
3.961611e+08 
3.969690e+08 
3.979681e+08 
3.990969e+08 
4.002848e+08 
4.014566e+08 
4.025368e+08 
4.034555e+08 
4.041539e+08 
4.045894e+08 
4.047372e+08 
4.045894e+08 
4.041539e+08 
4.034555e+08 
4.025368e+08 
4.014566e+08 
4.002848e+08 
3.990969e+08 
3.979681e+08 
3.969690e+08 
3.961611e+08 
3.955939e+08 
3.953014e+08 
3.948646e+08 
3.951820e+08 
3.957983e+08 
3.966774e+08 
3.977663e+08 
3.989984e+08 
4.002958e+08 
4.015747e+08 
4.027511e+08 
4.037479e+08 
4.045021e+08 
4.049702e+08 
4.051286e+08 
4.049702e+08 
4.045021e+08 
4.037479e+08 
4.027511e+08 
4.015747e+08 
4.002958e+08 
3.989984e+08 
3.977663e+08 
3.966774e+08 
3.957983e+08 
3.951820e+08 
3.948646e+08 
3.951701e+08 
3.954700e+08 
3.960522e+08 
3.968819e+08 
3.979087e+08 
3.990685e+08 
4.002875e+08 
4.014870e+08 
4.025900e+08 
4.035267e+08 
4.042389e+08 
4.046837e+08 
4.048348e+08 
4.046837e+08 
4.042389e+08 
4.035267e+08 
4.025900e+08 
4.014870e+08 
4.002875e+08 
3.990685e+08 
3.979087e+08 
3.968819e+08 
3.960522e+08 
3.954700e+08 
3.951701e+08 
3.947948e+08 
3.951123e+08 
3.957300e+08 
3.966134e+08 
3.977115e+08 
3.989588e+08 
4.002788e+08 
4.015886e+08 
4.028050e+08 
4.038497e+08 
4.046531e+08 
4.051597e+08 
4.053329e+08 
4.051597e+08 
4.046531e+08 
4.038497e+08 
4.028050e+08 
4.015886e+08 
4.002788e+08 
3.989588e+08 
3.977115e+08 
3.966134e+08 
3.957300e+08 
3.951123e+08 
3.947948e+08 
3.949837e+08 
3.952884e+08 
3.958819e+08 
3.967317e+08 
3.977893e+08 
3.989909e+08 
4.002612e+08 
4.015183e+08 
4.026800e+08 
4.036698e+08 
4.044231e+08 
4.048929e+08 
4.050523e+08 
4.048929e+08 
4.044231e+08 
4.036698e+08 
4.026800e+08 
4.015183e+08 
4.002612e+08 
3.989909e+08 
3.977893e+08 
3.967317e+08 
3.958819e+08 
3.952884e+08 
3.949837e+08 
3.946069e+08 
3.949287e+08 
3.955573e+08 
3.964614e+08 
3.975920e+08 
3.988824e+08 
4.002520e+08 
4.016116e+08 
4.028717e+08 
4.039496e+08 
4.047743e+08 
4.052918e+08 
4.054681e+08 
4.052918e+08 
4.047743e+08 
4.039496e+08 
4.028717e+08 
4.016116e+08 
4.002520e+08 
3.988824e+08 
3.975920e+08 
3.964614e+08 
3.955573e+08 
3.949287e+08 
3.946069e+08 
3.947722e+08 
3.950860e+08 
3.957002e+08 
3.965856e+08 
3.976939e+08 
3.989569e+08 
4.002913e+08 
4.016065e+08 
4.028159e+08 
4.038439e+08 
4.046287e+08 
4.051221e+08 
4.052907e+08 
4.051221e+08 
4.046287e+08 
4.038439e+08 
4.028159e+08 
4.016065e+08 
4.002913e+08 
3.989569e+08 
3.976939e+08 
3.965856e+08 
3.957002e+08 
3.950860e+08 
3.947722e+08 
3.943657e+08 
3.946991e+08 
3.953544e+08 
3.963040e+08 
3.974979e+08 
3.988621e+08 
4.003050e+08 
4.017283e+08 
4.030393e+08 
4.041566e+08 
4.050121e+08 
4.055506e+08 
4.057346e+08 
4.055506e+08 
4.050121e+08 
4.041566e+08 
4.030393e+08 
4.017283e+08 
4.003050e+08 
3.988621e+08 
3.974979e+08 
3.963040e+08 
3.953544e+08 
3.946991e+08 
3.943657e+08 
3.943634e+08 
3.947071e+08 
3.953846e+08 
3.963668e+08 
3.975970e+08 
3.989891e+08 
4.004379e+08 
4.018369e+08 
4.030930e+08 
4.041335e+08 
4.049073e+08 
4.053822e+08 
4.055420e+08 
4.053822e+08 
4.049073e+08 
4.041335e+08 
4.030930e+08 
4.018369e+08 
4.004379e+08 
3.989891e+08 
3.975970e+08 
3.963668e+08 
3.953846e+08 
3.947071e+08 
3.943634e+08 
3.938520e+08 
3.942426e+08 
3.950115e+08 
3.961213e+08 
3.974968e+08 
3.990286e+08 
4.005932e+08 
4.020775e+08 
4.033937e+08 
4.044792e+08 
4.052894e+08 
4.057913e+08 
4.059615e+08 
4.057913e+08 
4.052894e+08 
4.044792e+08 
4.033937e+08 
4.020775e+08 
4.005932e+08 
3.990286e+08 
3.974968e+08 
3.961213e+08 
3.950115e+08 
3.942426e+08 
3.938520e+08 
3.935524e+08 
3.940168e+08 
3.949194e+08 
3.961919e+08 
3.977158e+08 
3.993414e+08 
4.009255e+08 
4.023599e+08 
4.035763e+08 
4.045357e+08 
4.052189e+08 
4.056235e+08 
4.057568e+08 
4.056235e+08 
4.052189e+08 
4.045357e+08 
4.035763e+08 
4.023599e+08 
4.009255e+08 
3.993414e+08 
3.977158e+08 
3.961919e+08 
3.949194e+08 
3.940168e+08 
3.935524e+08 
3.925892e+08 
3.932221e+08 
3.944139e+08 
3.960125e+08 
3.978121e+08 
3.996108e+08 
4.012659e+08 
4.027042e+08 
4.038956e+08 
4.048257e+08 
4.054874e+08 
4.058811e+08 
4.060116e+08 
4.058811e+08 
4.054874e+08 
4.048257e+08 
4.038956e+08 
4.027042e+08 
4.012659e+08 
3.996108e+08 
3.978121e+08 
3.960125e+08 
3.944139e+08 
3.932221e+08 
3.925892e+08 
3.915090e+08 
3.924470e+08 
3.941112e+08 
3.961519e+08 
3.982204e+08 
4.000906e+08 
4.016783e+08 
4.029755e+08 
4.039890e+08 
4.047280e+08 
4.052155e+08 
4.054869e+08 
4.055733e+08 
4.054869e+08 
4.052155e+08 
4.047280e+08 
4.039890e+08 
4.029755e+08 
4.016783e+08 
4.000906e+08 
3.982204e+08 
3.961519e+08 
3.941112e+08 
3.924470e+08 
3.915090e+08 
4.179721e+08 
4.164950e+08 
4.137442e+08 
4.100774e+08 
4.059185e+08 
4.016623e+08 
3.976109e+08 
3.939660e+08 
3.908595e+08 
3.883827e+08 
3.865932e+08 
3.855169e+08 
3.851585e+08 
3.855169e+08 
3.865932e+08 
3.883827e+08 
3.908595e+08 
3.939660e+08 
3.976109e+08 
4.016623e+08 
4.059185e+08 
4.100774e+08 
4.137442e+08 
4.164950e+08 
4.179721e+08 
4.216282e+08 
4.205014e+08 
4.182444e+08 
4.148768e+08 
4.104839e+08 
4.052570e+08 
3.995063e+08 
3.936340e+08 
3.880789e+08 
3.832596e+08 
3.795361e+08 
3.771851e+08 
3.763815e+08 
3.771851e+08 
3.795361e+08 
3.832596e+08 
3.880789e+08 
3.936340e+08 
3.995063e+08 
4.052570e+08 
4.104839e+08 
4.148768e+08 
4.182444e+08 
4.205014e+08 
4.216282e+08 
4.182217e+08 
4.169606e+08 
4.145539e+08 
4.112130e+08 
4.072118e+08 
4.028461e+08 
3.984003e+08 
3.941316e+08 
3.902699e+08 
3.870201e+08 
3.845588e+08 
3.830236e+08 
3.825019e+08 
3.830236e+08 
3.845588e+08 
3.870201e+08 
3.902699e+08 
3.941316e+08 
3.984003e+08 
4.028461e+08 
4.072118e+08 
4.112130e+08 
4.145539e+08 
4.169606e+08 
4.182217e+08 
4.210551e+08 
4.198040e+08 
4.173584e+08 
4.138360e+08 
4.094219e+08 
4.043705e+08 
3.989965e+08 
3.936521e+08 
3.886949e+08 
3.844556e+08 
3.812139e+08 
3.791810e+08 
3.784886e+08 
3.791810e+08 
3.812139e+08 
3.844556e+08 
3.886949e+08 
3.936521e+08 
3.989965e+08 
4.043705e+08 
4.094219e+08 
4.138360e+08 
4.173584e+08 
4.198040e+08 
4.210551e+08 
4.192858e+08 
4.180548e+08 
4.156768e+08 
4.123118e+08 
4.081808e+08 
4.035484e+08 
3.987040e+08 
3.939459e+08 
3.895655e+08 
3.858336e+08 
3.829835e+08 
3.811964e+08 
3.805876e+08 
3.811964e+08 
3.829835e+08 
3.858336e+08 
3.895655e+08 
3.939459e+08 
3.987040e+08 
4.035484e+08 
4.081808e+08 
4.123118e+08 
4.156768e+08 
4.180548e+08 
4.192858e+08 
</DataArray>
<DataArray type='Float32' Name='viscosity' Format='ascii'> 
1.000000e+20 
1.000000e+20 
1.000000e+20 
1.000000e+20 
1.000000e+20 
1.000000e+20 
1.000000e+20 
1.000000e+20 
1.000000e+20 
1.000000e+20 
1.000000e+20 
1.000000e+20 
1.000000e+20 
1.000000e+20 
1.000000e+20 
1.000000e+20 
1.000000e+20 
1.000000e+20 
1.000000e+20 
1.000000e+20 
1.000000e+20 
1.000000e+20 
1.000000e+20 
1.000000e+20 
1.000000e+20 
1.000000e+20 
1.000000e+20 
1.000000e+20 
1.000000e+20 
1.000000e+20 
1.000000e+20 
1.000000e+20 
1.000000e+20 
1.000000e+20 
1.000000e+20 
1.000000e+20 
1.000000e+20 
1.000000e+20 
1.000000e+20 
1.000000e+20 
1.000000e+20 
1.000000e+20 
1.000000e+20 
1.000000e+20 
1.000000e+20 
1.000000e+20 
1.000000e+20 
1.000000e+20 
1.000000e+20 
1.000000e+20 
1.000000e+20 
1.000000e+20 
1.000000e+20 
1.000000e+20 
1.000000e+20 
1.000000e+20 
1.000000e+20 
1.000000e+20 
1.000000e+20 
1.000000e+20 
1.000000e+20 
1.000000e+20 
1.000000e+20 
1.000000e+20 
1.000000e+20 
1.000000e+20 
1.000000e+20 
1.000000e+20 
1.000000e+20 
1.000000e+20 
1.000000e+20 
1.000000e+20 
1.000000e+20 
1.000000e+20 
1.000000e+20 
1.000000e+20 
1.000000e+20 
1.000000e+20 
1.000000e+20 
1.000000e+20 
1.000000e+20 
1.000000e+20 
1.000000e+20 
1.000000e+20 
1.000000e+20 
1.000000e+20 
1.000000e+20 
1.000000e+20 
1.000000e+20 
1.000000e+20 
1.000000e+20 
1.000000e+20 
1.000000e+20 
1.000000e+20 
1.000000e+20 
1.000000e+20 
1.000000e+20 
1.000000e+20 
1.000000e+20 
1.000000e+20 
1.000000e+20 
1.000000e+20 
1.000000e+20 
1.000000e+20 
1.000000e+20 
1.000000e+20 
1.000000e+20 
1.000000e+20 
1.000000e+20 
1.000000e+20 
1.000000e+20 
1.000000e+20 
1.000000e+20 
1.000000e+20 
1.000000e+20 
1.000000e+20 
1.000000e+20 
1.000000e+20 
1.000000e+20 
1.000000e+20 
1.000000e+20 
1.000000e+20 
1.000000e+20 
1.000000e+20 
1.000000e+20 
1.000000e+20 
1.000000e+20 
1.000000e+20 
1.000000e+20 
1.000000e+20 
1.000000e+20 
1.000000e+20 
1.000000e+20 
1.000000e+20 
1.000000e+20 
1.000000e+20 
1.000000e+20 
1.000000e+20 
1.000000e+20 
1.000000e+20 
1.000000e+20 
1.000000e+20 
1.000000e+20 
1.000000e+20 
1.000000e+20 
1.000000e+20 
1.000000e+20 
1.000000e+20 
1.000000e+20 
1.000000e+20 
1.000000e+20 
1.000000e+20 
1.000000e+20 
1.000000e+20 
1.000000e+20 
1.000000e+20 
1.000000e+20 
1.000000e+20 
1.000000e+20 
1.000000e+20 
1.000000e+20 
1.000000e+20 
1.000000e+20 
1.000000e+20 
1.000000e+20 
1.000000e+20 
1.000000e+20 
1.000000e+20 
1.000000e+20 
1.000000e+20 
1.000000e+20 
1.000000e+20 
1.000000e+20 
1.000000e+20 
1.000000e+20 
1.000000e+20 
1.000000e+20 
1.000000e+20 
1.000000e+20 
1.000000e+20 
1.000000e+20 
1.000000e+20 
1.000000e+20 
1.000000e+20 
1.000000e+20 
1.000000e+20 
1.000000e+20 
1.000000e+20 
1.000000e+20 
1.000000e+20 
1.000000e+20 
1.000000e+20 
1.000000e+20 
1.000000e+20 
1.000000e+20 
1.000000e+20 
1.000000e+20 
1.000000e+20 
1.000000e+20 
1.000000e+20 
1.000000e+20 
1.000000e+20 
1.000000e+20 
1.000000e+20 
1.000000e+20 
1.000000e+20 
1.000000e+20 
1.000000e+20 
1.000000e+20 
1.000000e+20 
1.000000e+20 
1.000000e+20 
1.000000e+20 
1.000000e+20 
1.000000e+20 
1.000000e+20 
1.000000e+20 
1.000000e+20 
1.000000e+20 
1.000000e+20 
1.000000e+20 
1.000000e+20 
1.000000e+20 
1.000000e+20 
1.000000e+20 
1.000000e+20 
1.000000e+20 
1.000000e+20 
1.000000e+20 
1.000000e+20 
1.000000e+20 
1.000000e+20 
1.000000e+20 
1.000000e+20 
1.000000e+20 
1.000000e+20 
1.000000e+20 
1.000000e+20 
1.000000e+20 
1.000000e+20 
1.000000e+20 
1.000000e+20 
1.000000e+20 
1.000000e+20 
1.000000e+20 
1.000000e+20 
1.000000e+20 
1.000000e+20 
1.000000e+20 
1.000000e+20 
1.000000e+20 
1.000000e+20 
1.000000e+20 
1.000000e+20 
1.000000e+20 
1.000000e+20 
1.000000e+20 
1.000000e+20 
1.000000e+20 
1.000000e+20 
1.000000e+20 
1.000000e+20 
1.000000e+20 
1.000000e+20 
1.000000e+20 
1.000000e+20 
1.000000e+20 
1.000000e+20 
1.000000e+20 
1.000000e+20 
1.000000e+20 
1.000000e+20 
1.000000e+20 
1.000000e+20 
1.000000e+20 
1.000000e+20 
1.000000e+20 
1.000000e+20 
1.000000e+20 
1.000000e+20 
1.000000e+20 
1.000000e+20 
1.000000e+20 
1.000000e+20 
1.000000e+20 
1.000000e+20 
1.000000e+20 
1.000000e+20 
1.000000e+20 
1.000000e+20 
1.000000e+20 
1.000000e+20 
1.000000e+20 
1.000000e+20 
1.000000e+20 
1.000000e+20 
1.000000e+20 
1.000000e+20 
1.000000e+20 
1.000000e+20 
1.000000e+20 
1.000000e+20 
1.000000e+20 
1.000000e+20 
1.000000e+20 
1.000000e+20 
1.000000e+20 
1.000000e+20 
1.000000e+20 
1.000000e+20 
1.000000e+20 
1.000000e+20 
1.000000e+20 
1.000000e+20 
1.000000e+20 
1.000000e+20 
1.000000e+20 
1.000000e+20 
1.000000e+20 
1.000000e+20 
1.000000e+20 
1.000000e+20 
1.000000e+20 
1.000000e+20 
1.000000e+20 
1.000000e+20 
1.000000e+20 
1.000000e+20 
1.000000e+20 
1.000000e+20 
1.000000e+20 
1.000000e+20 
1.000000e+20 
1.000000e+20 
1.000000e+20 
1.000000e+20 
1.000000e+20 
1.000000e+20 
1.000000e+20 
1.000000e+20 
1.000000e+20 
1.000000e+20 
1.000000e+20 
1.000000e+20 
1.000000e+20 
1.000000e+20 
1.000000e+20 
1.000000e+20 
1.000000e+20 
1.000000e+20 
1.000000e+20 
1.000000e+20 
1.000000e+20 
1.000000e+20 
1.000000e+20 
1.000000e+20 
1.000000e+20 
1.000000e+20 
1.000000e+20 
1.000000e+20 
1.000000e+20 
1.000000e+20 
1.000000e+20 
1.000000e+20 
1.000000e+20 
1.000000e+20 
1.000000e+20 
1.000000e+20 
1.000000e+20 
1.000000e+20 
1.000000e+20 
1.000000e+20 
1.000000e+20 
1.000000e+20 
1.000000e+20 
1.000000e+20 
1.000000e+20 
1.000000e+20 
1.000000e+20 
1.000000e+20 
1.000000e+20 
1.000000e+20 
1.000000e+20 
1.000000e+20 
1.000000e+20 
1.000000e+20 
1.000000e+20 
1.000000e+20 
1.000000e+20 
1.000000e+20 
1.000000e+20 
1.000000e+20 
1.000000e+20 
1.000000e+20 
1.000000e+20 
1.000000e+20 
1.000000e+20 
1.000000e+20 
1.000000e+20 
1.000000e+20 
1.000000e+20 
1.000000e+20 
1.000000e+20 
1.000000e+20 
1.000000e+20 
1.000000e+20 
1.000000e+20 
1.000000e+20 
1.000000e+20 
1.000000e+20 
1.000000e+20 
1.000000e+20 
1.000000e+20 
1.000000e+20 
1.000000e+20 
1.000000e+20 
1.000000e+20 
1.000000e+20 
1.000000e+20 
1.000000e+20 
1.000000e+20 
1.000000e+20 
1.000000e+20 
1.000000e+20 
1.000000e+20 
1.000000e+20 
1.000000e+20 
1.000000e+20 
1.000000e+20 
1.000000e+20 
1.000000e+20 
1.000000e+20 
1.000000e+20 
1.000000e+20 
1.000000e+20 
1.000000e+20 
1.000000e+20 
1.000000e+20 
1.000000e+20 
1.000000e+20 
1.000000e+20 
1.000000e+20 
1.000000e+20 
1.000000e+20 
1.000000e+20 
1.000000e+20 
1.000000e+20 
1.000000e+20 
1.000000e+20 
1.000000e+20 
1.000000e+20 
1.000000e+20 
1.000000e+20 
1.000000e+20 
1.000000e+20 
1.000000e+20 
1.000000e+20 
1.000000e+20 
1.000000e+20 
1.000000e+20 
1.000000e+20 
1.000000e+20 
1.000000e+20 
1.000000e+20 
1.000000e+20 
1.000000e+20 
1.000000e+20 
1.000000e+20 
1.000000e+20 
1.000000e+20 
1.000000e+20 
1.000000e+20 
1.000000e+20 
1.000000e+20 
1.000000e+20 
1.000000e+20 
1.000000e+20 
1.000000e+20 
1.000000e+20 
1.000000e+20 
1.000000e+20 
1.000000e+20 
1.000000e+20 
1.000000e+20 
1.000000e+20 
1.000000e+20 
1.000000e+20 
1.000000e+20 
1.000000e+20 
1.000000e+20 
1.000000e+20 
1.000000e+20 
1.000000e+20 
1.000000e+20 
1.000000e+20 
1.000000e+20 
1.000000e+20 
1.000000e+20 
1.000000e+20 
1.000000e+20 
1.000000e+21 
1.000000e+21 
1.000000e+21 
1.000000e+21 
1.000000e+21 
1.000000e+21 
1.000000e+21 
1.000000e+21 
1.000000e+21 
1.000000e+21 
1.000000e+21 
1.000000e+21 
1.000000e+21 
1.000000e+21 
1.000000e+21 
1.000000e+21 
1.000000e+21 
1.000000e+21 
1.000000e+21 
1.000000e+21 
1.000000e+21 
1.000000e+21 
1.000000e+21 
1.000000e+21 
1.000000e+21 
1.000000e+21 
1.000000e+21 
1.000000e+21 
1.000000e+21 
1.000000e+21 
1.000000e+21 
1.000000e+21 
1.000000e+21 
1.000000e+21 
1.000000e+21 
1.000000e+21 
1.000000e+21 
1.000000e+21 
1.000000e+21 
1.000000e+21 
1.000000e+21 
1.000000e+21 
1.000000e+21 
1.000000e+21 
1.000000e+21 
1.000000e+21 
1.000000e+21 
1.000000e+21 
1.000000e+21 
1.000000e+21 
1.000000e+21 
1.000000e+21 
1.000000e+21 
1.000000e+21 
1.000000e+21 
1.000000e+21 
1.000000e+21 
1.000000e+21 
1.000000e+21 
1.000000e+21 
1.000000e+21 
1.000000e+21 
1.000000e+21 
1.000000e+21 
1.000000e+21 
1.000000e+21 
1.000000e+21 
1.000000e+21 
1.000000e+21 
1.000000e+21 
1.000000e+21 
1.000000e+21 
1.000000e+21 
1.000000e+21 
1.000000e+21 
1.000000e+21 
1.000000e+21 
1.000000e+21 
1.000000e+21 
1.000000e+21 
1.000000e+21 
1.000000e+21 
1.000000e+21 
1.000000e+21 
1.000000e+21 
1.000000e+21 
1.000000e+21 
1.000000e+21 
1.000000e+21 
1.000000e+21 
1.000000e+21 
1.000000e+21 
1.000000e+21 
1.000000e+21 
1.000000e+21 
1.000000e+21 
1.000000e+21 
1.000000e+21 
1.000000e+21 
1.000000e+21 
1.000000e+21 
1.000000e+21 
1.000000e+21 
1.000000e+21 
1.000000e+21 
1.000000e+21 
1.000000e+21 
1.000000e+21 
1.000000e+21 
1.000000e+21 
1.000000e+21 
1.000000e+21 
1.000000e+21 
1.000000e+21 
1.000000e+21 
1.000000e+21 
1.000000e+21 
1.000000e+21 
1.000000e+21 
1.000000e+21 
1.000000e+21 
1.000000e+21 
1.000000e+21 
1.000000e+21 
1.000000e+21 
</DataArray>
<DataArray type='Float32' Name='density' Format='ascii'> 
3.200000e+03 
3.200000e+03 
3.200000e+03 
3.200000e+03 
3.200000e+03 
3.200000e+03 
3.200000e+03 
3.200000e+03 
3.200000e+03 
3.200000e+03 
3.200000e+03 
3.200000e+03 
3.200000e+03 
3.200000e+03 
3.200000e+03 
3.200000e+03 
3.200000e+03 
3.200000e+03 
3.200000e+03 
3.200000e+03 
3.200000e+03 
3.200000e+03 
3.200000e+03 
3.200000e+03 
3.200000e+03 
3.200000e+03 
3.200000e+03 
3.200000e+03 
3.200000e+03 
3.200000e+03 
3.200000e+03 
3.200000e+03 
3.200000e+03 
3.200000e+03 
3.200000e+03 
3.200000e+03 
3.200000e+03 
3.200000e+03 
3.200000e+03 
3.200000e+03 
3.200000e+03 
3.200000e+03 
3.200000e+03 
3.200000e+03 
3.200000e+03 
3.200000e+03 
3.200000e+03 
3.200000e+03 
3.200000e+03 
3.200000e+03 
3.200000e+03 
3.200000e+03 
3.200000e+03 
3.200000e+03 
3.200000e+03 
3.200000e+03 
3.200000e+03 
3.200000e+03 
3.200000e+03 
3.200000e+03 
3.200000e+03 
3.200000e+03 
3.200000e+03 
3.200000e+03 
3.200000e+03 
3.200000e+03 
3.200000e+03 
3.200000e+03 
3.200000e+03 
3.200000e+03 
3.200000e+03 
3.200000e+03 
3.200000e+03 
3.200000e+03 
3.200000e+03 
3.200000e+03 
3.200000e+03 
3.200000e+03 
3.200000e+03 
3.200000e+03 
3.200000e+03 
3.200000e+03 
3.200000e+03 
3.200000e+03 
3.200000e+03 
3.200000e+03 
3.200000e+03 
3.200000e+03 
3.200000e+03 
3.200000e+03 
3.200000e+03 
3.200000e+03 
3.200000e+03 
3.200000e+03 
3.200000e+03 
3.200000e+03 
3.200000e+03 
3.200000e+03 
3.200000e+03 
3.200000e+03 
3.200000e+03 
3.200000e+03 
3.200000e+03 
3.200000e+03 
3.200000e+03 
3.200000e+03 
3.200000e+03 
3.200000e+03 
3.200000e+03 
3.200000e+03 
3.200000e+03 
3.200000e+03 
3.200000e+03 
3.200000e+03 
3.200000e+03 
3.200000e+03 
3.200000e+03 
3.200000e+03 
3.200000e+03 
3.200000e+03 
3.200000e+03 
3.200000e+03 
3.200000e+03 
3.200000e+03 
3.200000e+03 
3.200000e+03 
3.200000e+03 
3.200000e+03 
3.200000e+03 
3.200000e+03 
3.200000e+03 
3.200000e+03 
3.200000e+03 
3.200000e+03 
3.200000e+03 
3.200000e+03 
3.200000e+03 
3.200000e+03 
3.200000e+03 
3.200000e+03 
3.200000e+03 
3.200000e+03 
3.200000e+03 
3.200000e+03 
3.200000e+03 
3.200000e+03 
3.200000e+03 
3.200000e+03 
3.200000e+03 
3.200000e+03 
3.200000e+03 
3.200000e+03 
3.200000e+03 
3.200000e+03 
3.200000e+03 
3.200000e+03 
3.200000e+03 
3.200000e+03 
3.200000e+03 
3.200000e+03 
3.200000e+03 
3.200000e+03 