<VTKFile type='UnstructuredGrid' version='0.1' byte_order='BigEndian'> 
<UnstructuredGrid> 
<Piece NumberOfPoints='  1681 ' NumberOfCells='   400 '> 
<Points> 
<DataArray type='Float32' NumberOfComponents='3' Format='ascii'> 
0.000000e+00 0.000000e+00 0.000000e+00 
2.500000e-02 0.000000e+00 0.000000e+00 
5.000000e-02 0.000000e+00 0.000000e+00 
7.500000e-02 0.000000e+00 0.000000e+00 
1.000000e-01 0.000000e+00 0.000000e+00 
1.250000e-01 0.000000e+00 0.000000e+00 
1.500000e-01 0.000000e+00 0.000000e+00 
1.750000e-01 0.000000e+00 0.000000e+00 
2.000000e-01 0.000000e+00 0.000000e+00 
2.250000e-01 0.000000e+00 0.000000e+00 
2.500000e-01 0.000000e+00 0.000000e+00 
2.750000e-01 0.000000e+00 0.000000e+00 
3.000000e-01 0.000000e+00 0.000000e+00 
3.250000e-01 0.000000e+00 0.000000e+00 
3.500000e-01 0.000000e+00 0.000000e+00 
3.750000e-01 0.000000e+00 0.000000e+00 
4.000000e-01 0.000000e+00 0.000000e+00 
4.250000e-01 0.000000e+00 0.000000e+00 
4.500000e-01 0.000000e+00 0.000000e+00 
4.750000e-01 0.000000e+00 0.000000e+00 
5.000000e-01 0.000000e+00 0.000000e+00 
5.250000e-01 0.000000e+00 0.000000e+00 
5.500000e-01 0.000000e+00 0.000000e+00 
5.750000e-01 0.000000e+00 0.000000e+00 
6.000000e-01 0.000000e+00 0.000000e+00 
6.250000e-01 0.000000e+00 0.000000e+00 
6.500000e-01 0.000000e+00 0.000000e+00 
6.750000e-01 0.000000e+00 0.000000e+00 
7.000000e-01 0.000000e+00 0.000000e+00 
7.250000e-01 0.000000e+00 0.000000e+00 
7.500000e-01 0.000000e+00 0.000000e+00 
7.750000e-01 0.000000e+00 0.000000e+00 
8.000000e-01 0.000000e+00 0.000000e+00 
8.250000e-01 0.000000e+00 0.000000e+00 
8.500000e-01 0.000000e+00 0.000000e+00 
8.750000e-01 0.000000e+00 0.000000e+00 
9.000000e-01 0.000000e+00 0.000000e+00 
9.250000e-01 0.000000e+00 0.000000e+00 
9.500000e-01 0.000000e+00 0.000000e+00 
9.750000e-01 0.000000e+00 0.000000e+00 
1.000000e+00 0.000000e+00 0.000000e+00 
0.000000e+00 2.500000e-02 0.000000e+00 
2.500000e-02 2.500000e-02 0.000000e+00 
5.000000e-02 2.500000e-02 0.000000e+00 
7.500000e-02 2.500000e-02 0.000000e+00 
1.000000e-01 2.500000e-02 0.000000e+00 
1.250000e-01 2.500000e-02 0.000000e+00 
1.500000e-01 2.500000e-02 0.000000e+00 
1.750000e-01 2.500000e-02 0.000000e+00 
2.000000e-01 2.500000e-02 0.000000e+00 
2.250000e-01 2.500000e-02 0.000000e+00 
2.500000e-01 2.500000e-02 0.000000e+00 
2.750000e-01 2.500000e-02 0.000000e+00 
3.000000e-01 2.500000e-02 0.000000e+00 
3.250000e-01 2.500000e-02 0.000000e+00 
3.500000e-01 2.500000e-02 0.000000e+00 
3.750000e-01 2.500000e-02 0.000000e+00 
4.000000e-01 2.500000e-02 0.000000e+00 
4.250000e-01 2.500000e-02 0.000000e+00 
4.500000e-01 2.500000e-02 0.000000e+00 
4.750000e-01 2.500000e-02 0.000000e+00 
5.000000e-01 2.500000e-02 0.000000e+00 
5.250000e-01 2.500000e-02 0.000000e+00 
5.500000e-01 2.500000e-02 0.000000e+00 
5.750000e-01 2.500000e-02 0.000000e+00 
6.000000e-01 2.500000e-02 0.000000e+00 
6.250000e-01 2.500000e-02 0.000000e+00 
6.500000e-01 2.500000e-02 0.000000e+00 
6.750000e-01 2.500000e-02 0.000000e+00 
7.000000e-01 2.500000e-02 0.000000e+00 
7.250000e-01 2.500000e-02 0.000000e+00 
7.500000e-01 2.500000e-02 0.000000e+00 
7.750000e-01 2.500000e-02 0.000000e+00 
8.000000e-01 2.500000e-02 0.000000e+00 
8.250000e-01 2.500000e-02 0.000000e+00 
8.500000e-01 2.500000e-02 0.000000e+00 
8.750000e-01 2.500000e-02 0.000000e+00 
9.000000e-01 2.500000e-02 0.000000e+00 
9.250000e-01 2.500000e-02 0.000000e+00 
9.500000e-01 2.500000e-02 0.000000e+00 
9.750000e-01 2.500000e-02 0.000000e+00 
1.000000e+00 2.500000e-02 0.000000e+00 
0.000000e+00 5.000000e-02 0.000000e+00 
2.500000e-02 5.000000e-02 0.000000e+00 
5.000000e-02 5.000000e-02 0.000000e+00 
7.500000e-02 5.000000e-02 0.000000e+00 
1.000000e-01 5.000000e-02 0.000000e+00 
1.250000e-01 5.000000e-02 0.000000e+00 
1.500000e-01 5.000000e-02 0.000000e+00 
1.750000e-01 5.000000e-02 0.000000e+00 
2.000000e-01 5.000000e-02 0.000000e+00 
2.250000e-01 5.000000e-02 0.000000e+00 
2.500000e-01 5.000000e-02 0.000000e+00 
2.750000e-01 5.000000e-02 0.000000e+00 
3.000000e-01 5.000000e-02 0.000000e+00 
3.250000e-01 5.000000e-02 0.000000e+00 
3.500000e-01 5.000000e-02 0.000000e+00 
3.750000e-01 5.000000e-02 0.000000e+00 
4.000000e-01 5.000000e-02 0.000000e+00 
4.250000e-01 5.000000e-02 0.000000e+00 
4.500000e-01 5.000000e-02 0.000000e+00 
4.750000e-01 5.000000e-02 0.000000e+00 
5.000000e-01 5.000000e-02 0.000000e+00 
5.250000e-01 5.000000e-02 0.000000e+00 
5.500000e-01 5.000000e-02 0.000000e+00 
5.750000e-01 5.000000e-02 0.000000e+00 
6.000000e-01 5.000000e-02 0.000000e+00 
6.250000e-01 5.000000e-02 0.000000e+00 
6.500000e-01 5.000000e-02 0.000000e+00 
6.750000e-01 5.000000e-02 0.000000e+00 
7.000000e-01 5.000000e-02 0.000000e+00 
7.250000e-01 5.000000e-02 0.000000e+00 
7.500000e-01 5.000000e-02 0.000000e+00 
7.750000e-01 5.000000e-02 0.000000e+00 
8.000000e-01 5.000000e-02 0.000000e+00 
8.250000e-01 5.000000e-02 0.000000e+00 
8.500000e-01 5.000000e-02 0.000000e+00 
8.750000e-01 5.000000e-02 0.000000e+00 
9.000000e-01 5.000000e-02 0.000000e+00 
9.250000e-01 5.000000e-02 0.000000e+00 
9.500000e-01 5.000000e-02 0.000000e+00 
9.750000e-01 5.000000e-02 0.000000e+00 
1.000000e+00 5.000000e-02 0.000000e+00 
0.000000e+00 7.500000e-02 0.000000e+00 
2.500000e-02 7.500000e-02 0.000000e+00 
5.000000e-02 7.500000e-02 0.000000e+00 
7.500000e-02 7.500000e-02 0.000000e+00 
1.000000e-01 7.500000e-02 0.000000e+00 
1.250000e-01 7.500000e-02 0.000000e+00 
1.500000e-01 7.500000e-02 0.000000e+00 
1.750000e-01 7.500000e-02 0.000000e+00 
2.000000e-01 7.500000e-02 0.000000e+00 
2.250000e-01 7.500000e-02 0.000000e+00 
2.500000e-01 7.500000e-02 0.000000e+00 
2.750000e-01 7.500000e-02 0.000000e+00 
3.000000e-01 7.500000e-02 0.000000e+00 
3.250000e-01 7.500000e-02 0.000000e+00 
3.500000e-01 7.500000e-02 0.000000e+00 
3.750000e-01 7.500000e-02 0.000000e+00 
4.000000e-01 7.500000e-02 0.000000e+00 
4.250000e-01 7.500000e-02 0.000000e+00 
4.500000e-01 7.500000e-02 0.000000e+00 
4.750000e-01 7.500000e-02 0.000000e+00 
5.000000e-01 7.500000e-02 0.000000e+00 
5.250000e-01 7.500000e-02 0.000000e+00 
5.500000e-01 7.500000e-02 0.000000e+00 
5.750000e-01 7.500000e-02 0.000000e+00 
6.000000e-01 7.500000e-02 0.000000e+00 
6.250000e-01 7.500000e-02 0.000000e+00 
6.500000e-01 7.500000e-02 0.000000e+00 
6.750000e-01 7.500000e-02 0.000000e+00 
7.000000e-01 7.500000e-02 0.000000e+00 
7.250000e-01 7.500000e-02 0.000000e+00 
7.500000e-01 7.500000e-02 0.000000e+00 
7.750000e-01 7.500000e-02 0.000000e+00 
8.000000e-01 7.500000e-02 0.000000e+00 
8.250000e-01 7.500000e-02 0.000000e+00 
8.500000e-01 7.500000e-02 0.000000e+00 
8.750000e-01 7.500000e-02 0.000000e+00 
9.000000e-01 7.500000e-02 0.000000e+00 
9.250000e-01 7.500000e-02 0.000000e+00 
9.500000e-01 7.500000e-02 0.000000e+00 
9.750000e-01 7.500000e-02 0.000000e+00 
1.000000e+00 7.500000e-02 0.000000e+00 
0.000000e+00 1.000000e-01 0.000000e+00 
2.500000e-02 1.000000e-01 0.000000e+00 
5.000000e-02 1.000000e-01 0.000000e+00 
7.500000e-02 1.000000e-01 0.000000e+00 
1.000000e-01 1.000000e-01 0.000000e+00 
1.250000e-01 1.000000e-01 0.000000e+00 
1.500000e-01 1.000000e-01 0.000000e+00 
1.750000e-01 1.000000e-01 0.000000e+00 
2.000000e-01 1.000000e-01 0.000000e+00 
2.250000e-01 1.000000e-01 0.000000e+00 
2.500000e-01 1.000000e-01 0.000000e+00 
2.750000e-01 1.000000e-01 0.000000e+00 
3.000000e-01 1.000000e-01 0.000000e+00 
3.250000e-01 1.000000e-01 0.000000e+00 
3.500000e-01 1.000000e-01 0.000000e+00 
3.750000e-01 1.000000e-01 0.000000e+00 
4.000000e-01 1.000000e-01 0.000000e+00 
4.250000e-01 1.000000e-01 0.000000e+00 
4.500000e-01 1.000000e-01 0.000000e+00 
4.750000e-01 1.000000e-01 0.000000e+00 
5.000000e-01 1.000000e-01 0.000000e+00 
5.250000e-01 1.000000e-01 0.000000e+00 
5.500000e-01 1.000000e-01 0.000000e+00 
5.750000e-01 1.000000e-01 0.000000e+00 
6.000000e-01 1.000000e-01 0.000000e+00 
6.250000e-01 1.000000e-01 0.000000e+00 
6.500000e-01 1.000000e-01 0.000000e+00 
6.750000e-01 1.000000e-01 0.000000e+00 
7.000000e-01 1.000000e-01 0.000000e+00 
7.250000e-01 1.000000e-01 0.000000e+00 
7.500000e-01 1.000000e-01 0.000000e+00 
7.750000e-01 1.000000e-01 0.000000e+00 
8.000000e-01 1.000000e-01 0.000000e+00 
8.250000e-01 1.000000e-01 0.000000e+00 
8.500000e-01 1.000000e-01 0.000000e+00 
8.750000e-01 1.000000e-01 0.000000e+00 
9.000000e-01 1.000000e-01 0.000000e+00 
9.250000e-01 1.000000e-01 0.000000e+00 
9.500000e-01 1.000000e-01 0.000000e+00 
9.750000e-01 1.000000e-01 0.000000e+00 
1.000000e+00 1.000000e-01 0.000000e+00 
0.000000e+00 1.250000e-01 0.000000e+00 
2.500000e-02 1.250000e-01 0.000000e+00 
5.000000e-02 1.250000e-01 0.000000e+00 
7.500000e-02 1.250000e-01 0.000000e+00 
1.000000e-01 1.250000e-01 0.000000e+00 
1.250000e-01 1.250000e-01 0.000000e+00 
1.500000e-01 1.250000e-01 0.000000e+00 
1.750000e-01 1.250000e-01 0.000000e+00 
2.000000e-01 1.250000e-01 0.000000e+00 
2.250000e-01 1.250000e-01 0.000000e+00 
2.500000e-01 1.250000e-01 0.000000e+00 
2.750000e-01 1.250000e-01 0.000000e+00 
3.000000e-01 1.250000e-01 0.000000e+00 
3.250000e-01 1.250000e-01 0.000000e+00 
3.500000e-01 1.250000e-01 0.000000e+00 
3.750000e-01 1.250000e-01 0.000000e+00 
4.000000e-01 1.250000e-01 0.000000e+00 
4.250000e-01 1.250000e-01 0.000000e+00 
4.500000e-01 1.250000e-01 0.000000e+00 
4.750000e-01 1.250000e-01 0.000000e+00 
5.000000e-01 1.250000e-01 0.000000e+00 
5.250000e-01 1.250000e-01 0.000000e+00 
5.500000e-01 1.250000e-01 0.000000e+00 
5.750000e-01 1.250000e-01 0.000000e+00 
6.000000e-01 1.250000e-01 0.000000e+00 
6.250000e-01 1.250000e-01 0.000000e+00 
6.500000e-01 1.250000e-01 0.000000e+00 
6.750000e-01 1.250000e-01 0.000000e+00 
7.000000e-01 1.250000e-01 0.000000e+00 
7.250000e-01 1.250000e-01 0.000000e+00 
7.500000e-01 1.250000e-01 0.000000e+00 
7.750000e-01 1.250000e-01 0.000000e+00 
8.000000e-01 1.250000e-01 0.000000e+00 
8.250000e-01 1.250000e-01 0.000000e+00 
8.500000e-01 1.250000e-01 0.000000e+00 
8.750000e-01 1.250000e-01 0.000000e+00 
9.000000e-01 1.250000e-01 0.000000e+00 
9.250000e-01 1.250000e-01 0.000000e+00 
9.500000e-01 1.250000e-01 0.000000e+00 
[...]
<PointData Scalars='scalars'>
<DataArray type='Float32' NumberOfComponents='3' Name='velocity' Format='ascii'> 
0.000000e+00 0.000000e+00 0.000000e+00 
0.000000e+00 0.000000e+00 0.000000e+00 
0.000000e+00 0.000000e+00 0.000000e+00 
0.000000e+00 0.000000e+00 0.000000e+00 
0.000000e+00 0.000000e+00 0.000000e+00 
0.000000e+00 0.000000e+00 0.000000e+00 
0.000000e+00 0.000000e+00 0.000000e+00 
0.000000e+00 0.000000e+00 0.000000e+00 
0.000000e+00 0.000000e+00 0.000000e+00 
0.000000e+00 0.000000e+00 0.000000e+00 
0.000000e+00 0.000000e+00 0.000000e+00 
0.000000e+00 0.000000e+00 0.000000e+00 
0.000000e+00 0.000000e+00 0.000000e+00 
0.000000e+00 0.000000e+00 0.000000e+00 
0.000000e+00 0.000000e+00 0.000000e+00 
0.000000e+00 0.000000e+00 0.000000e+00 
0.000000e+00 0.000000e+00 0.000000e+00 
0.000000e+00 0.000000e+00 0.000000e+00 
0.000000e+00 0.000000e+00 0.000000e+00 
0.000000e+00 0.000000e+00 0.000000e+00 
0.000000e+00 0.000000e+00 0.000000e+00 
0.000000e+00 0.000000e+00 0.000000e+00 
0.000000e+00 0.000000e+00 0.000000e+00 
0.000000e+00 0.000000e+00 0.000000e+00 
0.000000e+00 0.000000e+00 0.000000e+00 
0.000000e+00 0.000000e+00 0.000000e+00 
0.000000e+00 0.000000e+00 0.000000e+00 
0.000000e+00 0.000000e+00 0.000000e+00 
0.000000e+00 0.000000e+00 0.000000e+00 
0.000000e+00 0.000000e+00 0.000000e+00 
0.000000e+00 0.000000e+00 0.000000e+00 
0.000000e+00 0.000000e+00 0.000000e+00 
0.000000e+00 0.000000e+00 0.000000e+00 
0.000000e+00 0.000000e+00 0.000000e+00 
0.000000e+00 0.000000e+00 0.000000e+00 
0.000000e+00 0.000000e+00 0.000000e+00 
0.000000e+00 0.000000e+00 0.000000e+00 
0.000000e+00 0.000000e+00 0.000000e+00 
0.000000e+00 0.000000e+00 0.000000e+00 
0.000000e+00 0.000000e+00 0.000000e+00 
0.000000e+00 0.000000e+00 0.000000e+00 
0.000000e+00 2.500000e-02 0.000000e+00 
0.000000e+00 2.500000e-02 0.000000e+00 
0.000000e+00 2.500000e-02 0.000000e+00 
0.000000e+00 2.500000e-02 0.000000e+00 
0.000000e+00 2.500000e-02 0.000000e+00 
0.000000e+00 2.500000e-02 0.000000e+00 
0.000000e+00 2.500000e-02 0.000000e+00 
0.000000e+00 2.500000e-02 0.000000e+00 
0.000000e+00 2.500000e-02 0.000000e+00 
0.000000e+00 2.500000e-02 0.000000e+00 
0.000000e+00 2.500000e-02 0.000000e+00 
0.000000e+00 2.500000e-02 0.000000e+00 
0.000000e+00 2.500000e-02 0.000000e+00 
0.000000e+00 2.500000e-02 0.000000e+00 
0.000000e+00 2.500000e-02 0.000000e+00 
0.000000e+00 2.500000e-02 0.000000e+00 
0.000000e+00 2.500000e-02 0.000000e+00 
0.000000e+00 2.500000e-02 0.000000e+00 
0.000000e+00 2.500000e-02 0.000000e+00 
0.000000e+00 2.500000e-02 0.000000e+00 
0.000000e+00 2.500000e-02 0.000000e+00 
0.000000e+00 2.500000e-02 0.000000e+00 
0.000000e+00 2.500000e-02 0.000000e+00 
0.000000e+00 2.500000e-02 0.000000e+00 
0.000000e+00 2.500000e-02 0.000000e+00 
0.000000e+00 2.500000e-02 0.000000e+00 
0.000000e+00 2.500000e-02 0.000000e+00 
0.000000e+00 2.500000e-02 0.000000e+00 
0.000000e+00 2.500000e-02 0.000000e+00 
0.000000e+00 2.500000e-02 0.000000e+00 
0.000000e+00 2.500000e-02 0.000000e+00 
0.000000e+00 2.500000e-02 0.000000e+00 
0.000000e+00 2.500000e-02 0.000000e+00 
0.000000e+00 2.500000e-02 0.000000e+00 
0.000000e+00 2.500000e-02 0.000000e+00 
0.000000e+00 2.500000e-02 0.000000e+00 
0.000000e+00 2.500000e-02 0.000000e+00 
0.000000e+00 2.500000e-02 0.000000e+00 
0.000000e+00 2.500000e-02 0.000000e+00 
0.000000e+00 2.500000e-02 0.000000e+00 
0.000000e+00 2.500000e-02 0.000000e+00 
0.000000e+00 5.000000e-02 0.000000e+00 
0.000000e+00 5.000000e-02 0.000000e+00 
0.000000e+00 5.000000e-02 0.000000e+00 
0.000000e+00 5.000000e-02 0.000000e+00 
0.000000e+00 5.000000e-02 0.000000e+00 
0.000000e+00 5.000000e-02 0.000000e+00 
0.000000e+00 5.000000e-02 0.000000e+00 
0.000000e+00 5.000000e-02 0.000000e+00 
0.000000e+00 5.000000e-02 0.000000e+00 
0.000000e+00 5.000000e-02 0.000000e+00 
0.000000e+00 5.000000e-02 0.000000e+00 
0.000000e+00 5.000000e-02 0.000000e+00 
0.000000e+00 5.000000e-02 0.000000e+00 
0.000000e+00 5.000000e-02 0.000000e+00 
0.000000e+00 5.000000e-02 0.000000e+00 
0.000000e+00 5.000000e-02 0.000000e+00 
0.000000e+00 5.000000e-02 0.000000e+00 
0.000000e+00 5.000000e-02 0.000000e+00 
0.000000e+00 5.000000e-02 0.000000e+00 
0.000000e+00 5.000000e-02 0.000000e+00 
0.000000e+00 5.000000e-02 0.000000e+00 
0.000000e+00 5.000000e-02 0.000000e+00 
0.000000e+00 5.000000e-02 0.000000e+00 
0.000000e+00 5.000000e-02 0.000000e+00 
0.000000e+00 5.000000e-02 0.000000e+00 
0.000000e+00 5.000000e-02 0.000000e+00 
0.000000e+00 5.000000e-02 0.000000e+00 
0.000000e+00 5.000000e-02 0.000000e+00 
0.000000e+00 5.000000e-02 0.000000e+00 
0.000000e+00 5.000000e-02 0.000000e+00 
0.000000e+00 5.000000e-02 0.000000e+00 
0.000000e+00 5.000000e-02 0.000000e+00 
0.000000e+00 5.000000e-02 0.000000e+00 
0.000000e+00 5.000000e-02 0.000000e+00 
0.000000e+00 5.000000e-02 0.000000e+00 
0.000000e+00 5.000000e-02 0.000000e+00 
0.000000e+00 5.000000e-02 0.000000e+00 
0.000000e+00 5.000000e-02 0.000000e+00 
0.000000e+00 5.000000e-02 0.000000e+00 
0.000000e+00 5.000000e-02 0.000000e+00 
0.000000e+00 5.000000e-02 0.000000e+00 
0.000000e+00 7.500000e-02 0.000000e+00 
0.000000e+00 7.500000e-02 0.000000e+00 
0.000000e+00 7.500000e-02 0.000000e+00 
0.000000e+00 7.500000e-02 0.000000e+00 
0.000000e+00 7.500000e-02 0.000000e+00 
0.000000e+00 7.500000e-02 0.000000e+00 
0.000000e+00 7.500000e-02 0.000000e+00 
0.000000e+00 7.500000e-02 0.000000e+00 
0.000000e+00 7.500000e-02 0.000000e+00 
0.000000e+00 7.500000e-02 0.000000e+00 
0.000000e+00 7.500000e-02 0.000000e+00 
0.000000e+00 7.500000e-02 0.000000e+00 
0.000000e+00 7.500000e-02 0.000000e+00 
0.000000e+00 7.500000e-02 0.000000e+00 
0.000000e+00 7.500000e-02 0.000000e+00 
0.000000e+00 7.500000e-02 0.000000e+00 
0.000000e+00 7.500000e-02 0.000000e+00 
0.000000e+00 7.500000e-02 0.000000e+00 
0.000000e+00 7.500000e-02 0.000000e+00 
0.000000e+00 7.500000e-02 0.000000e+00 
0.000000e+00 7.500000e-02 0.000000e+00 
0.000000e+00 7.500000e-02 0.000000e+00 
0.000000e+00 7.500000e-02 0.000000e+00 
0.000000e+00 7.500000e-02 0.000000e+00 
0.000000e+00 7.500000e-02 0.000000e+00 
0.000000e+00 7.500000e-02 0.000000e+00 
0.000000e+00 7.500000e-02 0.000000e+00 
0.000000e+00 7.500000e-02 0.000000e+00 
0.000000e+00 7.500000e-02 0.000000e+00 
0.000000e+00 7.500000e-02 0.000000e+00 
0.000000e+00 7.500000e-02 0.000000e+00 
0.000000e+00 7.500000e-02 0.000000e+00 
0.000000e+00 7.500000e-02 0.000000e+00 
0.000000e+00 7.500000e-02 0.000000e+00 
0.000000e+00 7.500000e-02 0.000000e+00 
0.000000e+00 7.500000e-02 0.000000e+00 
0.000000e+00 7.500000e-02 0.000000e+00 
0.000000e+00 7.500000e-02 0.000000e+00 
0.000000e+00 7.500000e-02 0.000000e+00 
0.000000e+00 7.500000e-02 0.000000e+00 
0.000000e+00 7.500000e-02 0.000000e+00 
0.000000e+00 1.000000e-01 0.000000e+00 
0.000000e+00 1.000000e-01 0.000000e+00 
0.000000e+00 1.000000e-01 0.000000e+00 
0.000000e+00 1.000000e-01 0.000000e+00 
0.000000e+00 1.000000e-01 0.000000e+00 
0.000000e+00 1.000000e-01 0.000000e+00 
0.000000e+00 1.000000e-01 0.000000e+00 
0.000000e+00 1.000000e-01 0.000000e+00 
0.000000e+00 1.000000e-01 0.000000e+00 
0.000000e+00 1.000000e-01 0.000000e+00 
0.000000e+00 1.000000e-01 0.000000e+00 
0.000000e+00 1.000000e-01 0.000000e+00 
0.000000e+00 1.000000e-01 0.000000e+00 
0.000000e+00 1.000000e-01 0.000000e+00 
0.000000e+00 1.000000e-01 0.000000e+00 
0.000000e+00 1.000000e-01 0.000000e+00 
0.000000e+00 1.000000e-01 0.000000e+00 
0.000000e+00 1.000000e-01 0.000000e+00 
0.000000e+00 1.000000e-01 0.000000e+00 
0.000000e+00 1.000000e-01 0.000000e+00 
0.000000e+00 1.000000e-01 0.000000e+00 
0.000000e+00 1.000000e-01 0.000000e+00 
0.000000e+00 1.000000e-01 0.000000e+00 
0.000000e+00 1.000000e-01 0.000000e+00 
0.000000e+00 1.000000e-01 0.000000e+00 
0.000000e+00 1.000000e-01 0.000000e+00 
0.000000e+00 1.000000e-01 0.000000e+00 
0.000000e+00 1.000000e-01 0.000000e+00 
0.000000e+00 1.000000e-01 0.000000e+00 
0.000000e+00 1.000000e-01 0.000000e+00 
0.000000e+00 1.000000e-01 0.000000e+00 
0.000000e+00 1.000000e-01 0.000000e+00 
0.000000e+00 1.000000e-01 0.000000e+00 
0.000000e+00 1.000000e-01 0.000000e+00 
0.000000e+00 1.000000e-01 0.000000e+00 
0.000000e+00 1.000000e-01 0.000000e+00 
0.000000e+00 1.000000e-01 0.000000e+00 
0.000000e+00 1.000000e-01 0.000000e+00 
0.000000e+00 1.000000e-01 0.000000e+00 
0.000000e+00 1.000000e-01 0.000000e+00 
0.000000e+00 1.000000e-01 0.000000e+00 
0.000000e+00 1.250000e-01 0.000000e+00 
0.000000e+00 1.250000e-01 0.000000e+00 
0.000000e+00 1.250000e-01 0.000000e+00 
0.000000e+00 1.250000e-01 0.000000e+00 
0.000000e+00 1.250000e-01 0.000000e+00 
0.000000e+00 1.250000e-01 0.000000e+00 
0.000000e+00 1.250000e-01 0.000000e+00 
0.000000e+00 1.250000e-01 0.000000e+00 
0.000000e+00 1.250000e-01 0.000000e+00 
0.000000e+00 1.250000e-01 0.000000e+00 
0.000000e+00 1.250000e-01 0.000000e+00 
0.000000e+00 1.250000e-01 0.000000e+00 
0.000000e+00 1.250000e-01 0.000000e+00 
0.000000e+00 1.250000e-01 0.000000e+00 
0.000000e+00 1.250000e-01 0.000000e+00 
0.000000e+00 1.250000e-01 0.000000e+00 
0.000000e+00 1.250000e-01 0.000000e+00 
0.000000e+00 1.250000e-01 0.000000e+00 
0.000000e+00 1.250000e-01 0.000000e+00 
0.000000e+00 1.250000e-01 0.000000e+00 
0.000000e+00 1.250000e-01 0.000000e+00 
0.000000e+00 1.250000e-01 0.000000e+00 
0.000000e+00 1.250000e-01 0.000000e+00 
0.000000e+00 1.250000e-01 0.000000e+00 
0.000000e+00 1.250000e-01 0.000000e+00 
0.000000e+00 1.250000e-01 0.000000e+00 
0.000000e+00 1.250000e-01 0.000000e+00 
0.000000e+00 1.250000e-01 0.000000e+00 
0.000000e+00 1.250000e-01 0.000000e+00 
0.000000e+00 1.250000e-01 0.000000e+00 
0.000000e+00 1.250000e-01 0.000000e+00 
0.000000e+00 1.250000e-01 0.000000e+00 
0.000000e+00 1.250000e-01 0.000000e+00 
0.000000e+00 1.250000e-01 0.000000e+00 
0.000000e+00 1.250000e-01 0.000000e+00 
0.000000e+00 1.250000e-01 0.000000e+00 
0.000000e+00 1.250000e-01 0.000000e+00 
0.000000e+00 1.250000e-01 0.000000e+00 
0.000000e+00 1.250000e-01 0.000000e+00 
0.000000e+00 1.250000e-01 0.000000e+00 
0.000000e+00 1.250000e-01 0.000000e+00 
0.000000e+00 1.500000e-01 0.000000e+00 
0.000000e+00 1.500000e-01 0.000000e+00 
0.000000e+00 1.500000e-01 0.000000e+00 
0.000000e+00 1.500000e-01 0.000000e+00 
0.000000e+00 1.500000e-01 0.000000e+00 
0.000000e+00 1.500000e-01 0.000000e+00 
0.000000e+00 1.500000e-01 0.000000e+00 
0.000000e+00 1.500000e-01 0.000000e+00 
0.000000e+00 1.500000e-01 0.000000e+00 
0.000000e+00 1.500000e-01 0.000000e+00 
0.000000e+00 1.500000e-01 0.000000e+00 
0.000000e+00 1.500000e-01 0.000000e+00 
0.000000e+00 1.500000e-01 0.000000e+00 
0.000000e+00 1.500000e-01 0.000000e+00 
0.000000e+00 1.500000e-01 0.000000e+00 
0.000000e+00 1.500000e-01 0.000000e+00 
0.000000e+00 1.500000e-01 0.000000e+00 
0.000000e+00 1.500000e-01 0.000000e+00 
0.000000e+00 1.500000e-01 0.000000e+00 
0.000000e+00 1.500000e-01 0.000000e+00 
0.000000e+00 1.500000e-01 0.000000e+00 
0.000000e+00 1.500000e-01 0.000000e+00 
0.000000e+00 1.500000e-01 0.000000e+00 
0.000000e+00 1.500000e-01 0.000000e+00 
0.000000e+00 1.500000e-01 0.000000e+00 
0.000000e+00 1.500000e-01 0.000000e+00 
0.000000e+00 1.500000e-01 0.000000e+00 
0.000000e+00 1.500000e-01 0.000000e+00 
0.000000e+00 1.500000e-01 0.000000e+00 
0.000000e+00 1.500000e-01 0.000000e+00 
0.000000e+00 1.500000e-01 0.000000e+00 
0.000000e+00 1.500000e-01 0.000000e+00 
0.000000e+00 1.500000e-01 0.000000e+00 
0.000000e+00 1.500000e-01 0.000000e+00 
0.000000e+00 1.500000e-01 0.000000e+00 
0.000000e+00 1.500000e-01 0.000000e+00 
0.000000e+00 1.500000e-01 0.000000e+00 
0.000000e+00 1.500000e-01 0.000000e+00 
0.000000e+00 1.500000e-01 0.000000e+00 
0.000000e+00 1.500000e-01 0.000000e+00 
0.000000e+00 1.500000e-01 0.000000e+00 
0.000000e+00 1.750000e-01 0.000000e+00 
0.000000e+00 1.750000e-01 0.000000e+00 
0.000000e+00 1.750000e-01 0.000000e+00 
0.000000e+00 1.750000e-01 0.000000e+00 
0.000000e+00 1.750000e-01 0.000000e+00 
0.000000e+00 1.750000e-01 0.000000e+00 
0.000000e+00 1.750000e-01 0.000000e+00 
0.000000e+00 1.750000e-01 0.000000e+00 
0.000000e+00 1.750000e-01 0.000000e+00 
0.000000e+00 1.750000e-01 0.000000e+00 
0.000000e+00 1.750000e-01 0.000000e+00 
0.000000e+00 1.750000e-01 0.000000e+00 
0.000000e+00 1.750000e-01 0.000000e+00 
0.000000e+00 1.750000e-01 0.000000e+00 
0.000000e+00 1.750000e-01 0.000000e+00 
0.000000e+00 1.750000e-01 0.000000e+00 
0.000000e+00 1.750000e-01 0.000000e+00 
0.000000e+00 1.750000e-01 0.000000e+00 
0.000000e+00 1.750000e-01 0.000000e+00 
0.000000e+00 1.750000e-01 0.000000e+00 
0.000000e+00 1.750000e-01 0.000000e+00 
0.000000e+00 1.750000e-01 0.000000e+00 
0.000000e+00 1.750000e-01 0.000000e+00 
0.000000e+00 1.750000e-01 0.000000e+00 
0.000000e+00 1.750000e-01 0.000000e+00 
0.000000e+00 1.750000e-01 0.000000e+00 
0.000000e+00 1.750000e-01 0.000000e+00 
0.000000e+00 1.750000e-01 0.000000e+00 
0.000000e+00 1.750000e-01 0.000000e+00 
0.000000e+00 1.750000e-01 0.000000e+00 
0.000000e+00 1.750000e-01 0.000000e+00 
0.000000e+00 1.750000e-01 0.000000e+00 
0.000000e+00 1.750000e-01 0.000000e+00 
0.000000e+00 1.750000e-01 0.000000e+00 
0.000000e+00 1.750000e-01 0.000000e+00 
0.000000e+00 1.750000e-01 0.000000e+00 
0.000000e+00 1.750000e-01 0.000000e+00 
0.000000e+00 1.750000e-01 0.000000e+00 
0.000000e+00 1.750000e-01 0.000000e+00 
0.000000e+00 1.750000e-01 0.000000e+00 
0.000000e+00 1.750000e-01 0.000000e+00 
0.000000e+00 2.000000e-01 0.000000e+00 
0.000000e+00 2.000000e-01 0.000000e+00 
0.000000e+00 2.000000e-01 0.000000e+00 
0.000000e+00 2.000000e-01 0.000000e+00 
0.000000e+00 2.000000e-01 0.000000e+00 
0.000000e+00 2.000000e-01 0.000000e+00 
0.000000e+00 2.000000e-01 0.000000e+00 
0.000000e+00 2.000000e-01 0.000000e+00 
0.000000e+00 2.000000e-01 0.000000e+00 
0.000000e+00 2.000000e-01 0.000000e+00 
0.000000e+00 2.000000e-01 0.000000e+00 
0.000000e+00 2.000000e-01 0.000000e+00 
0.000000e+00 2.000000e-01 0.000000e+00 
0.000000e+00 2.000000e-01 0.000000e+00 
0.000000e+00 2.000000e-01 0.000000e+00 
0.000000e+00 2.000000e-01 0.000000e+00 
0.000000e+00 2.000000e-01 0.000000e+00 
0.000000e+00 2.000000e-01 0.000000e+00 
0.000000e+00 2.000000e-01 0.000000e+00 
0.000000e+00 2.000000e-01 0.000000e+00 
0.000000e+00 2.000000e-01 0.000000e+00 
0.000000e+00 2.000000e-01 0.000000e+00 
0.000000e+00 2.000000e-01 0.000000e+00 
0.000000e+00 2.000000e-01 0.000000e+00 
0.000000e+00 2.000000e-01 0.000000e+00 
0.000000e+00 2.000000e-01 0.000000e+00 
0.000000e+00 2.000000e-01 0.000000e+00 
0.000000e+00 2.000000e-01 0.000000e+00 
0.000000e+00 2.000000e-01 0.000000e+00 
0.000000e+00 2.000000e-01 0.000000e+00 
0.000000e+00 2.000000e-01 0.000000e+00 
0.000000e+00 2.000000e-01 0.000000e+00 
0.000000e+00 2.000000e-01 0.000000e+00 
0.000000e+00 2.000000e-01 0.000000e+00 
0.000000e+00 2.000000e-01 0.000000e+00 
0.000000e+00 2.000000e-01 0.000000e+00 
0.000000e+00 2.000000e-01 0.000000e+00 
0.000000e+00 2.000000e-01 0.000000e+00 
0.000000e+00 2.000000e-01 0.000000e+00 
0.000000e+00 2.000000e-01 0.000000e+00 
0.000000e+00 2.000000e-01 0.000000e+00 
0.000000e+00 2.250000e-01 0.000000e+00 
0.000000e+00 2.250000e-01 0.000000e+00 
0.000000e+00 2.250000e-01 0.000000e+00 
0.000000e+00 2.250000e-01 0.000000e+00 
0.000000e+00 2.250000e-01 0.000000e+00 
0.000000e+00 2.250000e-01 0.000000e+00 
0.000000e+00 2.250000e-01 0.000000e+00 
0.000000e+00 2.250000e-01 0.000000e+00 
0.000000e+00 2.250000e-01 0.000000e+00 
0.000000e+00 2.250000e-01 0.000000e+00 
0.000000e+00 2.250000e-01 0.000000e+00 
0.000000e+00 2.250000e-01 0.000000e+00 
0.000000e+00 2.250000e-01 0.000000e+00 
0.000000e+00 2.250000e-01 0.000000e+00 
0.000000e+00 2.250000e-01 0.000000e+00 
0.000000e+00 2.250000e-01 0.000000e+00 
0.000000e+00 2.250000e-01 0.000000e+00 
0.000000e+00 2.250000e-01 0.000000e+00 
0.000000e+00 2.250000e-01 0.000000e+00 
0.000000e+00 2.250000e-01 0.000000e+00 
0.000000e+00 2.250000e-01 0.000000e+00 
0.000000e+00 2.250000e-01 0.000000e+00 
0.000000e+00 2.250000e-01 0.000000e+00 
0.000000e+00 2.250000e-01 0.000000e+00 
0.000000e+00 2.250000e-01 0.000000e+00 
0.000000e+00 2.250000e-01 0.000000e+00 
0.000000e+00 2.250000e-01 0.000000e+00 
0.000000e+00 2.250000e-01 0.000000e+00 
0.000000e+00 2.250000e-01 0.000000e+00 
0.000000e+00 2.250000e-01 0.000000e+00 
0.000000e+00 2.250000e-01 0.000000e+00 
0.000000e+00 2.250000e-01 0.000000e+00 
0.000000e+00 2.250000e-01 0.000000e+00 
0.000000e+00 2.250000e-01 0.000000e+00 
0.000000e+00 2.250000e-01 0.000000e+00 
0.000000e+00 2.250000e-01 0.000000e+00 
0.000000e+00 2.250000e-01 0.000000e+00 
0.000000e+00 2.250000e-01 0.000000e+00 
0.000000e+00 2.250000e-01 0.000000e+00 
0.000000e+00 2.250000e-01 0.000000e+00 
0.000000e+00 2.250000e-01 0.000000e+00 
0.000000e+00 2.500000e-01 0.000000e+00 
0.000000e+00 2.500000e-01 0.000000e+00 
0.000000e+00 2.500000e-01 0.000000e+00 
0.000000e+00 2.500000e-01 0.000000e+00 
0.000000e+00 2.500000e-01 0.000000e+00 
0.000000e+00 2.500000e-01 0.000000e+00 
0.000000e+00 2.500000e-01 0.000000e+00 
0.000000e+00 2.500000e-01 0.000000e+00 
0.000000e+00 2.500000e-01 0.000000e+00 
0.000000e+00 2.500000e-01 0.000000e+00 
0.000000e+00 2.500000e-01 0.000000e+00 
0.000000e+00 2.500000e-01 0.000000e+00 
0.000000e+00 2.500000e-01 0.000000e+00 
0.000000e+00 2.500000e-01 0.000000e+00 
0.000000e+00 2.500000e-01 0.000000e+00 
0.000000e+00 2.500000e-01 0.000000e+00 
0.000000e+00 2.500000e-01 0.000000e+00 
0.000000e+00 2.500000e-01 0.000000e+00 
0.000000e+00 2.500000e-01 0.000000e+00 
0.000000e+00 2.500000e-01 0.000000e+00 
0.000000e+00 2.500000e-01 0.000000e+00 
0.000000e+00 2.500000e-01 0.000000e+00 
0.000000e+00 2.500000e-01 0.000000e+00 
0.000000e+00 2.500000e-01 0.000000e+00 
0.000000e+00 2.500000e-01 0.000000e+00 
0.000000e+00 2.500000e-01 0.000000e+00 
0.000000e+00 2.500000e-01 0.000000e+00 
0.000000e+00 2.500000e-01 0.000000e+00 
0.000000e+00 2.500000e-01 0.000000e+00 
0.000000e+00 2.500000e-01 0.000000e+00 
0.000000e+00 2.500000e-01 0.000000e+00 
0.000000e+00 2.500000e-01 0.000000e+00 
0.000000e+00 2.500000e-01 0.000000e+00 
0.000000e+00 2.500000e-01 0.000000e+00 
0.000000e+00 2.500000e-01 0.000000e+00 
0.000000e+00 2.500000e-01 0.000000e+00 
0.000000e+00 2.500000e-01 0.000000e+00 
0.000000e+00 2.500000e-01 0.000000e+00 
0.000000e+00 2.500000e-01 0.000000e+00 
0.000000e+00 2.500000e-01 0.000000e+00 
0.000000e+00 2.500000e-01 0.000000e+00 
0.000000e+00 2.750000e-01 0.000000e+00 
0.000000e+00 2.750000e-01 0.000000e+00 
0.000000e+00 2.750000e-01 0.000000e+00 
0.000000e+00 2.750000e-01 0.000000e+00 
0.000000e+00 2.750000e-01 0.000000e+00 
0.000000e+00 2.750000e-01 0.000000e+00 
0.000000e+00 2.750000e-01 0.000000e+00 
0.000000e+00 2.750000e-01 0.000000e+00 
0.000000e+00 2.750000e-01 0.000000e+00 
0.000000e+00 2.750000e-01 0.000000e+00 
0.000000e+00 2.750000e-01 0.000000e+00 
0.000000e+00 2.750000e-01 0.000000e+00 
0.000000e+00 2.750000e-01 0.000000e+00 
0.000000e+00 2.750000e-01 0.000000e+00 
0.000000e+00 2.750000e-01 0.000000e+00 
0.000000e+00 2.750000e-01 0.000000e+00 
0.000000e+00 2.750000e-01 0.000000e+00 
0.000000e+00 2.750000e-01 0.000000e+00 
0.000000e+00 2.750000e-01 0.000000e+00 
0.000000e+00 2.750000e-01 0.000000e+00 
0.000000e+00 2.750000e-01 0.000000e+00 
0.000000e+00 2.750000e-01 0.000000e+00 
0.000000e+00 2.750000e-01 0.000000e+00 
0.000000e+00 2.750000e-01 0.000000e+00 
0.000000e+00 2.750000e-01 0.000000e+00 
0.000000e+00 2.750000e-01 0.000000e+00 
0.000000e+00 2.750000e-01 0.000000e+00 
0.000000e+00 2.750000e-01 0.000000e+00 
0.000000e+00 2.750000e-01 0.000000e+00 
0.000000e+00 2.750000e-01 0.000000e+00 
0.000000e+00 2.750000e-01 0.000000e+00 
0.000000e+00 2.750000e-01 0.000000e+00 
0.000000e+00 2.750000e-01 0.000000e+00 
0.000000e+00 2.750000e-01 0.000000e+00 
0.000000e+00 2.750000e-01 0.000000e+00 
0.000000e+00 2.750000e-01 0.000000e+00 
0.000000e+00 2.750000e-01 0.000000e+00 
0.000000e+00 2.750000e-01 0.000000e+00 
0.000000e+00 2.750000e-01 0.000000e+00 
0.000000e+00 2.750000e-01 0.000000e+00 
0.000000e+00 2.750000e-01 0.000000e+00 
0.000000e+00 3.000000e-01 0.000000e+00 
0.000000e+00 3.000000e-01 0.000000e+00 
0.000000e+00 3.000000e-01 0.000000e+00 
0.000000e+00 3.000000e-01 0.000000e+00 
0.000000e+00 3.000000e-01 0.000000e+00 