<VTKFile type='UnstructuredGrid' version='0.1' byte_order='BigEndian'> 
<UnstructuredGrid> 
<Piece NumberOfPoints='  1701 ' NumberOfCells='   400 '> 
<Points> 
<DataArray type='Float32' NumberOfComponents='3' Format='ascii'> 
0.000000e+00 0.000000e+00 0.000000e+00 
1.600000e+03 0.000000e+00 0.000000e+00 
3.200000e+03 0.000000e+00 0.000000e+00 
4.800000e+03 0.000000e+00 0.000000e+00 
6.400000e+03 0.000000e+00 0.000000e+00 
8.000000e+03 0.000000e+00 0.000000e+00 
9.600000e+03 0.000000e+00 0.000000e+00 
1.120000e+04 0.000000e+00 0.000000e+00 
1.280000e+04 0.000000e+00 0.000000e+00 
1.440000e+04 0.000000e+00 0.000000e+00 
1.600000e+04 0.000000e+00 0.000000e+00 
1.760000e+04 0.000000e+00 0.000000e+00 
1.920000e+04 0.000000e+00 0.000000e+00 
2.080000e+04 0.000000e+00 0.000000e+00 
2.240000e+04 0.000000e+00 0.000000e+00 
2.400000e+04 0.000000e+00 0.000000e+00 
2.560000e+04 0.000000e+00 0.000000e+00 
2.720000e+04 0.000000e+00 0.000000e+00 
2.880000e+04 0.000000e+00 0.000000e+00 
3.040000e+04 0.000000e+00 0.000000e+00 
3.200000e+04 0.000000e+00 0.000000e+00 
3.360000e+04 0.000000e+00 0.000000e+00 
3.520000e+04 0.000000e+00 0.000000e+00 
3.680000e+04 0.000000e+00 0.000000e+00 
3.840000e+04 0.000000e+00 0.000000e+00 
4.000000e+04 0.000000e+00 0.000000e+00 
4.160000e+04 0.000000e+00 0.000000e+00 
4.320000e+04 0.000000e+00 0.000000e+00 
4.480000e+04 0.000000e+00 0.000000e+00 
4.640000e+04 0.000000e+00 0.000000e+00 
4.800000e+04 0.000000e+00 0.000000e+00 
4.960000e+04 0.000000e+00 0.000000e+00 
5.120000e+04 0.000000e+00 0.000000e+00 
5.280000e+04 0.000000e+00 0.000000e+00 
5.440000e+04 0.000000e+00 0.000000e+00 
5.600000e+04 0.000000e+00 0.000000e+00 
5.760000e+04 0.000000e+00 0.000000e+00 
5.920000e+04 0.000000e+00 0.000000e+00 
6.080000e+04 0.000000e+00 0.000000e+00 
6.240000e+04 0.000000e+00 0.000000e+00 
6.400000e+04 0.000000e+00 0.000000e+00 
6.560000e+04 0.000000e+00 0.000000e+00 
6.720000e+04 0.000000e+00 0.000000e+00 
6.880000e+04 0.000000e+00 0.000000e+00 
7.040000e+04 0.000000e+00 0.000000e+00 
7.200000e+04 0.000000e+00 0.000000e+00 
7.360000e+04 0.000000e+00 0.000000e+00 
7.520000e+04 0.000000e+00 0.000000e+00 
7.680000e+04 0.000000e+00 0.000000e+00 
7.840000e+04 0.000000e+00 0.000000e+00 
8.000000e+04 0.000000e+00 0.000000e+00 
8.160000e+04 0.000000e+00 0.000000e+00 
8.320000e+04 0.000000e+00 0.000000e+00 
8.480000e+04 0.000000e+00 0.000000e+00 
8.640000e+04 0.000000e+00 0.000000e+00 
8.800000e+04 0.000000e+00 0.000000e+00 
8.960000e+04 0.000000e+00 0.000000e+00 
9.120000e+04 0.000000e+00 0.000000e+00 
9.280000e+04 0.000000e+00 0.000000e+00 
9.440000e+04 0.000000e+00 0.000000e+00 
9.600000e+04 0.000000e+00 0.000000e+00 
9.760000e+04 0.000000e+00 0.000000e+00 
9.920000e+04 0.000000e+00 0.000000e+00 
1.008000e+05 0.000000e+00 0.000000e+00 
1.024000e+05 0.000000e+00 0.000000e+00 
1.040000e+05 0.000000e+00 0.000000e+00 
1.056000e+05 0.000000e+00 0.000000e+00 
1.072000e+05 0.000000e+00 0.000000e+00 
1.088000e+05 0.000000e+00 0.000000e+00 
1.104000e+05 0.000000e+00 0.000000e+00 
1.120000e+05 0.000000e+00 0.000000e+00 
1.136000e+05 0.000000e+00 0.000000e+00 
1.152000e+05 0.000000e+00 0.000000e+00 
1.168000e+05 0.000000e+00 0.000000e+00 
1.184000e+05 0.000000e+00 0.000000e+00 
1.200000e+05 0.000000e+00 0.000000e+00 
1.216000e+05 0.000000e+00 0.000000e+00 
1.232000e+05 0.000000e+00 0.000000e+00 
1.248000e+05 0.000000e+00 0.000000e+00 
1.264000e+05 0.000000e+00 0.000000e+00 
1.280000e+05 0.000000e+00 0.000000e+00 
0.000000e+00 1.659527e+03 0.000000e+00 
1.600032e+03 1.659371e+03 0.000000e+00 
3.200064e+03 1.658904e+03 0.000000e+00 
4.800092e+03 1.658125e+03 0.000000e+00 
6.400116e+03 1.657035e+03 0.000000e+00 
8.000135e+03 1.655633e+03 0.000000e+00 
9.600147e+03 1.653919e+03 0.000000e+00 
1.120015e+04 1.651893e+03 0.000000e+00 
1.280015e+04 1.649556e+03 0.000000e+00 
1.440013e+04 1.646908e+03 0.000000e+00 
1.600010e+04 1.643950e+03 0.000000e+00 
1.760007e+04 1.640684e+03 0.000000e+00 
1.920001e+04 1.637112e+03 0.000000e+00 
2.079995e+04 1.633238e+03 0.000000e+00 
2.239987e+04 1.629066e+03 0.000000e+00 
2.399977e+04 1.624605e+03 0.000000e+00 
2.559967e+04 1.619861e+03 0.000000e+00 
2.719955e+04 1.614847e+03 0.000000e+00 
2.879941e+04 1.609576e+03 0.000000e+00 
3.039927e+04 1.604066e+03 0.000000e+00 
3.199911e+04 1.598338e+03 0.000000e+00 
3.359896e+04 1.592417e+03 0.000000e+00 
3.519879e+04 1.586331e+03 0.000000e+00 
3.679863e+04 1.580113e+03 0.000000e+00 
3.839848e+04 1.573803e+03 0.000000e+00 
3.999833e+04 1.567443e+03 0.000000e+00 
4.159821e+04 1.561081e+03 0.000000e+00 
4.319810e+04 1.554769e+03 0.000000e+00 
4.479802e+04 1.548562e+03 0.000000e+00 
4.639797e+04 1.542521e+03 0.000000e+00 
4.799795e+04 1.536709e+03 0.000000e+00 
4.959798e+04 1.531190e+03 0.000000e+00 
5.119805e+04 1.526029e+03 0.000000e+00 
5.279817e+04 1.521290e+03 0.000000e+00 
5.439833e+04 1.517035e+03 0.000000e+00 
5.599853e+04 1.513324e+03 0.000000e+00 
5.759877e+04 1.510208e+03 0.000000e+00 
5.919905e+04 1.507734e+03 0.000000e+00 
6.079935e+04 1.505939e+03 0.000000e+00 
6.239967e+04 1.504850e+03 0.000000e+00 
6.400000e+04 1.504486e+03 0.000000e+00 
6.560033e+04 1.504850e+03 0.000000e+00 
6.720065e+04 1.505939e+03 0.000000e+00 
6.880095e+04 1.507734e+03 0.000000e+00 
7.040123e+04 1.510208e+03 0.000000e+00 
7.200147e+04 1.513324e+03 0.000000e+00 
7.360167e+04 1.517035e+03 0.000000e+00 
7.520183e+04 1.521290e+03 0.000000e+00 
7.680195e+04 1.526029e+03 0.000000e+00 
7.840202e+04 1.531190e+03 0.000000e+00 
8.000205e+04 1.536709e+03 0.000000e+00 
8.160203e+04 1.542521e+03 0.000000e+00 
8.320198e+04 1.548562e+03 0.000000e+00 
8.480190e+04 1.554769e+03 0.000000e+00 
8.640179e+04 1.561081e+03 0.000000e+00 
8.800167e+04 1.567443e+03 0.000000e+00 
8.960152e+04 1.573803e+03 0.000000e+00 
9.120137e+04 1.580113e+03 0.000000e+00 
9.280121e+04 1.586331e+03 0.000000e+00 
9.440104e+04 1.592417e+03 0.000000e+00 
9.600089e+04 1.598338e+03 0.000000e+00 
9.760073e+04 1.604066e+03 0.000000e+00 
9.920059e+04 1.609576e+03 0.000000e+00 
1.008005e+05 1.614847e+03 0.000000e+00 
1.024003e+05 1.619861e+03 0.000000e+00 
1.040002e+05 1.624605e+03 0.000000e+00 
1.056001e+05 1.629066e+03 0.000000e+00 
1.072001e+05 1.633238e+03 0.000000e+00 
1.088000e+05 1.637112e+03 0.000000e+00 
1.103999e+05 1.640684e+03 0.000000e+00 
1.119999e+05 1.643950e+03 0.000000e+00 
1.135999e+05 1.646908e+03 0.000000e+00 
1.151999e+05 1.649556e+03 0.000000e+00 
1.167998e+05 1.651893e+03 0.000000e+00 
1.183999e+05 1.653919e+03 0.000000e+00 
1.199999e+05 1.655633e+03 0.000000e+00 
1.215999e+05 1.657035e+03 0.000000e+00 
1.231999e+05 1.658125e+03 0.000000e+00 
1.247999e+05 1.658904e+03 0.000000e+00 
1.264000e+05 1.659371e+03 0.000000e+00 
1.280000e+05 1.659527e+03 0.000000e+00 
0.000000e+00 3.319378e+03 0.000000e+00 
1.600066e+03 3.319066e+03 0.000000e+00 
3.200130e+03 3.318132e+03 0.000000e+00 
4.800188e+03 3.316574e+03 0.000000e+00 
6.400238e+03 3.314394e+03 0.000000e+00 
8.000277e+03 3.311590e+03 0.000000e+00 
9.600303e+03 3.308162e+03 0.000000e+00 
1.120031e+04 3.304111e+03 0.000000e+00 
1.280030e+04 3.299437e+03 0.000000e+00 
1.440027e+04 3.294141e+03 0.000000e+00 
1.600022e+04 3.288224e+03 0.000000e+00 
1.760014e+04 3.281690e+03 0.000000e+00 
1.920004e+04 3.274543e+03 0.000000e+00 
2.079991e+04 3.266790e+03 0.000000e+00 
2.239975e+04 3.258441e+03 0.000000e+00 
2.399956e+04 3.249510e+03 0.000000e+00 
2.559935e+04 3.240012e+03 0.000000e+00 
2.719910e+04 3.229971e+03 0.000000e+00 
2.879883e+04 3.219413e+03 0.000000e+00 
3.039854e+04 3.208374e+03 0.000000e+00 
3.199824e+04 3.196894e+03 0.000000e+00 
3.359791e+04 3.185023e+03 0.000000e+00 
3.519759e+04 3.172819e+03 0.000000e+00 
3.679726e+04 3.160347e+03 0.000000e+00 
3.839695e+04 3.147685e+03 0.000000e+00 
3.999665e+04 3.134919e+03 0.000000e+00 
4.159639e+04 3.122143e+03 0.000000e+00 
4.319617e+04 3.109463e+03 0.000000e+00 
4.479600e+04 3.096991e+03 0.000000e+00 
4.639590e+04 3.084849e+03 0.000000e+00 
4.799587e+04 3.073161e+03 0.000000e+00 
4.959592e+04 3.062058e+03 0.000000e+00 
5.119606e+04 3.051672e+03 0.000000e+00 
5.279629e+04 3.042133e+03 0.000000e+00 
5.439661e+04 3.033566e+03 0.000000e+00 
5.599702e+04 3.026091e+03 0.000000e+00 
5.759751e+04 3.019814e+03 0.000000e+00 
5.919807e+04 3.014828e+03 0.000000e+00 
6.079868e+04 3.011211e+03 0.000000e+00 
6.239933e+04 3.009017e+03 0.000000e+00 
6.400000e+04 3.008282e+03 0.000000e+00 
6.560067e+04 3.009017e+03 0.000000e+00 
6.720132e+04 3.011211e+03 0.000000e+00 
6.880193e+04 3.014828e+03 0.000000e+00 
7.040249e+04 3.019814e+03 0.000000e+00 
7.200298e+04 3.026091e+03 0.000000e+00 
7.360339e+04 3.033566e+03 0.000000e+00 
7.520371e+04 3.042133e+03 0.000000e+00 
7.680394e+04 3.051672e+03 0.000000e+00 
7.840408e+04 3.062058e+03 0.000000e+00 
8.000413e+04 3.073161e+03 0.000000e+00 
8.160410e+04 3.084849e+03 0.000000e+00 
8.320400e+04 3.096991e+03 0.000000e+00 
8.480383e+04 3.109463e+03 0.000000e+00 
8.640361e+04 3.122143e+03 0.000000e+00 
8.800335e+04 3.134919e+03 0.000000e+00 
8.960305e+04 3.147685e+03 0.000000e+00 
9.120274e+04 3.160347e+03 0.000000e+00 
9.280241e+04 3.172819e+03 0.000000e+00 
9.440209e+04 3.185023e+03 0.000000e+00 
9.600176e+04 3.196894e+03 0.000000e+00 
9.760146e+04 3.208374e+03 0.000000e+00 
9.920117e+04 3.219413e+03 0.000000e+00 
1.008009e+05 3.229971e+03 0.000000e+00 
1.024007e+05 3.240012e+03 0.000000e+00 
1.040004e+05 3.249510e+03 0.000000e+00 
1.056002e+05 3.258441e+03 0.000000e+00 
1.072001e+05 3.266790e+03 0.000000e+00 
1.088000e+05 3.274543e+03 0.000000e+00 
1.103999e+05 3.281690e+03 0.000000e+00 
1.119998e+05 3.288224e+03 0.000000e+00 
1.135997e+05 3.294141e+03 0.000000e+00 
1.151997e+05 3.299437e+03 0.000000e+00 
1.167997e+05 3.304111e+03 0.000000e+00 
1.183997e+05 3.308162e+03 0.000000e+00 
1.199997e+05 3.311590e+03 0.000000e+00 
1.215998e+05 3.314394e+03 0.000000e+00 
1.231998e+05 3.316574e+03 0.000000e+00 
1.247999e+05 3.318132e+03 0.000000e+00 
1.263999e+05 3.319066e+03 0.000000e+00 
1.280000e+05 3.319378e+03 0.000000e+00 
0.000000e+00 4.979876e+03 0.000000e+00 
[...]
<CellData Scalars='scalars'>
<DataArray type='Float32' Name='volume' Format='ascii'> 
1.062089e+07 
1.061288e+07 
1.059686e+07 
1.057282e+07 
1.054078e+07 
1.050078e+07 
1.045294e+07 
1.039747e+07 
1.033480e+07 
1.026559e+07 
1.019085e+07 
1.011197e+07 
1.003083e+07 
9.949753e+06 
9.871513e+06 
9.799222e+06 
9.736147e+06 
9.685456e+06 
9.649920e+06 
9.631600e+06 
9.631600e+06 
9.649920e+06 
9.685456e+06 
9.736147e+06 
9.799222e+06 
9.871513e+06 
9.949753e+06 
1.003083e+07 
1.011197e+07 
1.019085e+07 
1.026559e+07 
1.033480e+07 
1.039747e+07 
1.045294e+07 
1.050078e+07 
1.054078e+07 
1.057282e+07 
1.059686e+07 
1.061288e+07 
1.062089e+07 
1.062965e+07 
1.062158e+07 
1.060543e+07 
1.058119e+07 
1.054886e+07 
1.050846e+07 
1.046007e+07 
1.040387e+07 
1.034024e+07 
1.026981e+07 
1.019356e+07 
1.011290e+07 
1.002973e+07 
9.946450e+06 
9.865921e+06 
9.791384e+06 
9.726253e+06 
9.673848e+06 
9.637078e+06 
9.618112e+06 
9.618112e+06 
9.637078e+06 
9.673848e+06 
9.726253e+06 
9.791384e+06 
9.865921e+06 
9.946450e+06 
1.002973e+07 
1.011290e+07 
1.019356e+07 
1.026981e+07 
1.034024e+07 
1.040387e+07 
1.046007e+07 
1.050846e+07 
1.054886e+07 
1.058119e+07 
1.060543e+07 
1.062158e+07 
1.062965e+07 
1.064683e+07 
1.063870e+07 
1.062244e+07 
1.059803e+07 
1.056543e+07 
1.052460e+07 
1.047551e+07 
1.041826e+07 
1.035308e+07 
1.028050e+07 
1.020139e+07 
1.011711e+07 
1.002956e+07 
9.941233e+06 
9.855215e+06 
9.775054e+06 
9.704579e+06 
9.647580e+06 
9.607428e+06 
9.586667e+06 
9.586667e+06 
9.607428e+06 
9.647580e+06 
9.704579e+06 
9.775054e+06 
9.855215e+06 
9.941233e+06 
1.002956e+07 
1.011711e+07 
1.020139e+07 
1.028050e+07 
1.035308e+07 
1.041826e+07 
1.047551e+07 
1.052460e+07 
1.056543e+07 
1.059803e+07 
1.062244e+07 
1.063870e+07 
1.064683e+07 
1.067253e+07 
1.066436e+07 
1.064802e+07 
1.062350e+07 
1.059070e+07 
1.054948e+07 
1.049969e+07 
1.044119e+07 
1.037403e+07 
1.029847e+07 
1.021522e+07 
1.012548e+07 
1.003112e+07 
9.934747e+06 
9.839747e+06 
9.750192e+06 
9.670630e+06 
9.605707e+06 
9.559660e+06 
9.535748e+06 
9.535748e+06 
9.559660e+06 
9.605707e+06 
9.670630e+06 
9.750192e+06 
9.839747e+06 
9.934747e+06 
1.003112e+07 
1.012548e+07 
1.021522e+07 
1.029847e+07 
1.037403e+07 
1.044119e+07 
1.049969e+07 
1.054948e+07 
1.059070e+07 
1.062350e+07 
1.064802e+07 
1.066436e+07 
1.067253e+07 
1.070686e+07 
1.069864e+07 
1.068225e+07 
1.065771e+07 
1.062490e+07 
1.058353e+07 
1.053321e+07 
1.047353e+07 
1.040417e+07 
1.032507e+07 
1.023657e+07 
1.013962e+07 
1.003595e+07 
9.928255e+06 
9.820309e+06 
9.716913e+06 
9.623705e+06 
9.546690e+06 
9.491535e+06 
9.462715e+06 
9.462715e+06 
9.491535e+06 
9.546690e+06 
9.623705e+06 
9.716913e+06 
9.820309e+06 
9.928255e+06 
1.003595e+07 
1.013962e+07 
1.023657e+07 
1.032507e+07 
1.040417e+07 
1.047353e+07 
1.053321e+07 
1.058353e+07 
1.062490e+07 
1.065771e+07 
1.068225e+07 
1.069864e+07 
1.070686e+07 
1.074998e+07 
1.074163e+07 
1.072517e+07 
1.070076e+07 
1.066825e+07 
1.062718e+07 
1.057684e+07 
1.051639e+07 
1.044504e+07 
1.036219e+07 
1.026767e+07 
1.016195e+07 
1.004647e+07 
9.923897e+06 
9.798399e+06 
9.675715e+06 
9.563019e+06 
9.468369e+06 
9.399712e+06 
9.363541e+06 
9.363541e+06 
9.399712e+06 
9.468369e+06 
9.563019e+06 
9.675715e+06 
9.798399e+06 
9.923897e+06 
1.004647e+07 
1.016195e+07 
1.026767e+07 
1.036219e+07 
1.044504e+07 
1.051639e+07 
1.057684e+07 
1.062718e+07 
1.066825e+07 
1.070076e+07 
1.072517e+07 
1.074163e+07 
1.074998e+07 
1.080217e+07 
1.079339e+07 
1.077664e+07 
1.075250e+07 
1.072083e+07 
1.068087e+07 
1.063145e+07 
1.057118e+07 
1.049860e+07 
1.041240e+07 
1.031162e+07 
1.019599e+07 
1.006635e+07 
9.925103e+06 
9.776679e+06 
9.627896e+06 
9.487976e+06 
9.367992e+06 
9.279498e+06 
9.232368e+06 
9.232368e+06 
9.279498e+06 
9.367992e+06 
9.487976e+06 
9.627896e+06 
9.776679e+06 
9.925103e+06 
1.006635e+07 
1.019599e+07 
1.031162e+07 
1.041240e+07 
1.049860e+07 
1.057118e+07 
1.063145e+07 
1.068087e+07 
1.072083e+07 
1.075250e+07 
1.077664e+07 
1.079339e+07 
1.080217e+07 
1.086420e+07 
1.085385e+07 
1.083610e+07 
1.081240e+07 
1.078242e+07 
1.074485e+07 
1.069790e+07 
1.063946e+07 
1.056724e+07 
1.047894e+07 
1.037254e+07 
1.024662e+07 
1.010096e+07 
9.937212e+06 
9.759720e+06 
9.576308e+06 
9.398740e+06 
9.242391e+06 
9.124528e+06 
9.060822e+06 
9.060822e+06 
9.124528e+06 
9.242391e+06 
9.398740e+06 
9.576308e+06 
9.759720e+06 
9.937212e+06 
1.010096e+07 
1.024662e+07 
1.037254e+07 
1.047894e+07 
1.056724e+07 
1.063946e+07 
1.069790e+07 
1.074485e+07 
1.078242e+07 
1.081240e+07 
1.083610e+07 
1.085385e+07 
1.086420e+07 
1.093832e+07 
1.092228e+07 
1.090202e+07 
1.087923e+07 
1.085236e+07 
1.081914e+07 
1.077697e+07 
1.072289e+07 
1.065364e+07 
1.056573e+07 
1.045566e+07 
1.032037e+07 
1.015789e+07 
9.968324e+06 
9.755145e+06 
9.526668e+06 
9.297408e+06 
9.088585e+06 
8.926457e+06 
8.836975e+06 
8.836975e+06 
8.926457e+06 
9.088585e+06 
9.297408e+06 
9.526668e+06 
9.755145e+06 
9.968324e+06 
1.015789e+07 
1.032037e+07 
1.045566e+07 
1.056573e+07 
1.065364e+07 
1.072289e+07 
1.077697e+07 
1.081914e+07 
1.085236e+07 
1.087923e+07 
1.090202e+07 
1.092228e+07 
1.093832e+07 
1.103098e+07 
1.099534e+07 
1.097145e+07 
1.095084e+07 
1.092940e+07 
1.090334e+07 
1.086914e+07 
1.082302e+07 
1.076068e+07 
1.067722e+07 
1.056734e+07 
1.042567e+07 
1.024757e+07 
1.003040e+07 
9.775305e+06 
9.489741e+06 
9.190344e+06 
8.905448e+06 
8.675022e+06 
8.543770e+06 
8.543770e+06 
8.675022e+06 
8.905448e+06 
9.190344e+06 
9.489741e+06 
9.775305e+06 
1.003040e+07 
1.024757e+07 
1.042567e+07 
1.056734e+07 
1.067722e+07 
1.076068e+07 
1.082302e+07 
1.086914e+07 
1.090334e+07 
1.092940e+07 
1.095084e+07 
1.097145e+07 
1.099534e+07 
1.103098e+07 
</DataArray>
</CellData>
<PointData Scalars='scalars'>
<DataArray type='Float32' NumberOfComponents='3' Name='velocity (cm/year)' Format='ascii'> 
-1.000000e+00 5.000000e-01 0.000000e+00 
-1.000000e+00 5.000000e-01 0.000000e+00 
-1.000000e+00 5.000000e-01 0.000000e+00 
-1.000000e+00 5.000000e-01 0.000000e+00 
-1.000000e+00 5.000000e-01 0.000000e+00 
-1.000000e+00 5.000000e-01 0.000000e+00 
-1.000000e+00 5.000000e-01 0.000000e+00 
-1.000000e+00 5.000000e-01 0.000000e+00 
-1.000000e+00 5.000000e-01 0.000000e+00 
-1.000000e+00 5.000000e-01 0.000000e+00 
-1.000000e+00 5.000000e-01 0.000000e+00 
-1.000000e+00 5.000000e-01 0.000000e+00 
-1.000000e+00 5.000000e-01 0.000000e+00 
-1.000000e+00 5.000000e-01 0.000000e+00 
-1.000000e+00 5.000000e-01 0.000000e+00 
-1.000000e+00 5.000000e-01 0.000000e+00 
-1.000000e+00 5.000000e-01 0.000000e+00 
-1.000000e+00 5.000000e-01 0.000000e+00 
-1.000000e+00 5.000000e-01 0.000000e+00 
-1.000000e+00 5.000000e-01 0.000000e+00 
-1.000000e+00 5.000000e-01 0.000000e+00 
-1.000000e+00 5.000000e-01 0.000000e+00 
-1.000000e+00 5.000000e-01 0.000000e+00 
-1.000000e+00 5.000000e-01 0.000000e+00 
-1.000000e+00 5.000000e-01 0.000000e+00 
-1.000000e+00 5.000000e-01 0.000000e+00 
-1.000000e+00 5.000000e-01 0.000000e+00 
-1.000000e+00 5.000000e-01 0.000000e+00 
-1.000000e+00 5.000000e-01 0.000000e+00 
-1.000000e+00 5.000000e-01 0.000000e+00 
-1.000000e+00 5.000000e-01 0.000000e+00 
-1.000000e+00 5.000000e-01 0.000000e+00 
-1.000000e+00 5.000000e-01 0.000000e+00 
-1.000000e+00 5.000000e-01 0.000000e+00 
-1.000000e+00 5.000000e-01 0.000000e+00 
-1.000000e+00 5.000000e-01 0.000000e+00 
-1.000000e+00 5.000000e-01 0.000000e+00 
-1.000000e+00 5.000000e-01 0.000000e+00 
-1.000000e+00 5.000000e-01 0.000000e+00 
-1.000000e+00 5.000000e-01 0.000000e+00 
0.000000e+00 5.000000e-01 0.000000e+00 
1.000000e+00 5.000000e-01 0.000000e+00 
1.000000e+00 5.000000e-01 0.000000e+00 
1.000000e+00 5.000000e-01 0.000000e+00 
1.000000e+00 5.000000e-01 0.000000e+00 
1.000000e+00 5.000000e-01 0.000000e+00 
1.000000e+00 5.000000e-01 0.000000e+00 
1.000000e+00 5.000000e-01 0.000000e+00 
1.000000e+00 5.000000e-01 0.000000e+00 
1.000000e+00 5.000000e-01 0.000000e+00 
1.000000e+00 5.000000e-01 0.000000e+00 
1.000000e+00 5.000000e-01 0.000000e+00 
1.000000e+00 5.000000e-01 0.000000e+00 
1.000000e+00 5.000000e-01 0.000000e+00 
1.000000e+00 5.000000e-01 0.000000e+00 
1.000000e+00 5.000000e-01 0.000000e+00 
1.000000e+00 5.000000e-01 0.000000e+00 
1.000000e+00 5.000000e-01 0.000000e+00 
1.000000e+00 5.000000e-01 0.000000e+00 
1.000000e+00 5.000000e-01 0.000000e+00 
1.000000e+00 5.000000e-01 0.000000e+00 
1.000000e+00 5.000000e-01 0.000000e+00 
1.000000e+00 5.000000e-01 0.000000e+00 
1.000000e+00 5.000000e-01 0.000000e+00 
1.000000e+00 5.000000e-01 0.000000e+00 
1.000000e+00 5.000000e-01 0.000000e+00 
1.000000e+00 5.000000e-01 0.000000e+00 
1.000000e+00 5.000000e-01 0.000000e+00 
1.000000e+00 5.000000e-01 0.000000e+00 
1.000000e+00 5.000000e-01 0.000000e+00 
1.000000e+00 5.000000e-01 0.000000e+00 
1.000000e+00 5.000000e-01 0.000000e+00 
1.000000e+00 5.000000e-01 0.000000e+00 
1.000000e+00 5.000000e-01 0.000000e+00 
1.000000e+00 5.000000e-01 0.000000e+00 
1.000000e+00 5.000000e-01 0.000000e+00 
1.000000e+00 5.000000e-01 0.000000e+00 
1.000000e+00 5.000000e-01 0.000000e+00 
1.000000e+00 5.000000e-01 0.000000e+00 
1.000000e+00 5.000000e-01 0.000000e+00 
1.000000e+00 5.000000e-01 0.000000e+00 
-1.000000e+00 4.987670e-01 0.000000e+00 
-9.976335e-01 4.987668e-01 0.000000e+00 
-9.952667e-01 4.987664e-01 0.000000e+00 
-9.928991e-01 4.987653e-01 0.000000e+00 
-9.905303e-01 4.987638e-01 0.000000e+00 
-9.881588e-01 4.987615e-01 0.000000e+00 
-9.857839e-01 4.987580e-01 0.000000e+00 
-9.834026e-01 4.987533e-01 0.000000e+00 
-9.810133e-01 4.987465e-01 0.000000e+00 
-9.786112e-01 4.987378e-01 0.000000e+00 
-9.761929e-01 4.987257e-01 0.000000e+00 
-9.737510e-01 4.987106e-01 0.000000e+00 
-9.712799e-01 4.986904e-01 0.000000e+00 
-9.687687e-01 4.986659e-01 0.000000e+00 
-9.662078e-01 4.986335e-01 0.000000e+00 
-9.635817e-01 4.985949e-01 0.000000e+00 
-9.608753e-01 4.985447e-01 0.000000e+00 
-9.580665e-01 4.984857e-01 0.000000e+00 
-9.551311e-01 4.984095e-01 0.000000e+00 
-9.520383e-01 4.983198e-01 0.000000e+00 
-9.487515e-01 4.982054e-01 0.000000e+00 
-9.452254e-01 4.980743e-01 0.000000e+00 
-9.414008e-01 4.979040e-01 0.000000e+00 
-9.372153e-01 4.976988e-01 0.000000e+00 
-9.325855e-01 4.974420e-01 0.000000e+00 
-9.274051e-01 4.971655e-01 0.000000e+00 
-9.215068e-01 4.967783e-01 0.000000e+00 
-9.147665e-01 4.962426e-01 0.000000e+00 
-9.070068e-01 4.956138e-01 0.000000e+00 
-8.978637e-01 4.951154e-01 0.000000e+00 
-8.866227e-01 4.941098e-01 0.000000e+00 
-8.731367e-01 4.919790e-01 0.000000e+00 
-8.572358e-01 4.898989e-01 0.000000e+00 
-8.366555e-01 4.900264e-01 0.000000e+00 
-8.059812e-01 4.861395e-01 0.000000e+00 
-7.666708e-01 4.706354e-01 0.000000e+00 
-7.199729e-01 4.572416e-01 0.000000e+00 
-6.433120e-01 4.660585e-01 0.000000e+00 
-4.632132e-01 4.212010e-01 0.000000e+00 
-1.820489e-01 1.361096e-01 0.000000e+00 
8.416801e-15 -9.258622e-02 0.000000e+00 
1.820489e-01 1.361096e-01 0.000000e+00 
4.632132e-01 4.212010e-01 0.000000e+00 
6.433120e-01 4.660585e-01 0.000000e+00 
7.199729e-01 4.572416e-01 0.000000e+00 
7.666708e-01 4.706354e-01 0.000000e+00 
8.059812e-01 4.861395e-01 0.000000e+00 
8.366555e-01 4.900264e-01 0.000000e+00 
8.572358e-01 4.898989e-01 0.000000e+00 
8.731367e-01 4.919790e-01 0.000000e+00 
8.866227e-01 4.941098e-01 0.000000e+00 
8.978637e-01 4.951154e-01 0.000000e+00 
9.070068e-01 4.956138e-01 0.000000e+00 
9.147665e-01 4.962426e-01 0.000000e+00 
9.215068e-01 4.967783e-01 0.000000e+00 
9.274051e-01 4.971655e-01 0.000000e+00 
9.325855e-01 4.974420e-01 0.000000e+00 
9.372153e-01 4.976988e-01 0.000000e+00 
9.414008e-01 4.979040e-01 0.000000e+00 
9.452254e-01 4.980743e-01 0.000000e+00 
9.487515e-01 4.982054e-01 0.000000e+00 
9.520383e-01 4.983198e-01 0.000000e+00 
9.551311e-01 4.984095e-01 0.000000e+00 
9.580665e-01 4.984857e-01 0.000000e+00 
9.608753e-01 4.985447e-01 0.000000e+00 
9.635817e-01 4.985949e-01 0.000000e+00 
9.662078e-01 4.986335e-01 0.000000e+00 
9.687687e-01 4.986659e-01 0.000000e+00 
9.712799e-01 4.986904e-01 0.000000e+00 
9.737510e-01 4.987106e-01 0.000000e+00 
9.761929e-01 4.987257e-01 0.000000e+00 
9.786112e-01 4.987378e-01 0.000000e+00 
9.810133e-01 4.987465e-01 0.000000e+00 
9.834026e-01 4.987533e-01 0.000000e+00 
9.857839e-01 4.987580e-01 0.000000e+00 
9.881588e-01 4.987615e-01 0.000000e+00 
9.905303e-01 4.987638e-01 0.000000e+00 
9.928991e-01 4.987653e-01 0.000000e+00 
9.952667e-01 4.987664e-01 0.000000e+00 
9.976335e-01 4.987668e-01 0.000000e+00 
1.000000e+00 4.987670e-01 0.000000e+00 
-1.000000e+00 4.951133e-01 0.000000e+00 
-9.953328e-01 4.951124e-01 0.000000e+00 
-9.906643e-01 4.951098e-01 0.000000e+00 
-9.859930e-01 4.951048e-01 0.000000e+00 
-9.813172e-01 4.950972e-01 0.000000e+00 
-9.766340e-01 4.950859e-01 0.000000e+00 
-9.719403e-01 4.950700e-01 0.000000e+00 
-9.672311e-01 4.950482e-01 0.000000e+00 
-9.625010e-01 4.950187e-01 0.000000e+00 
-9.577419e-01 4.949800e-01 0.000000e+00 
-9.529448e-01 4.949292e-01 0.000000e+00 
-9.480971e-01 4.948647e-01 0.000000e+00 
-9.431848e-01 4.947818e-01 0.000000e+00 
-9.381890e-01 4.946786e-01 0.000000e+00 
-9.330881e-01 4.945484e-01 0.000000e+00 
-9.278547e-01 4.943886e-01 0.000000e+00 
-9.224561e-01 4.941895e-01 0.000000e+00 
-9.168528e-01 4.939476e-01 0.000000e+00 
-9.109958e-01 4.936484e-01 0.000000e+00 
-9.048282e-01 4.932871e-01 0.000000e+00 
-8.982759e-01 4.928430e-01 0.000000e+00 
-8.912570e-01 4.923086e-01 0.000000e+00 
-8.836630e-01 4.916506e-01 0.000000e+00 
-8.753719e-01 4.908561e-01 0.000000e+00 
-8.662074e-01 4.898805e-01 0.000000e+00 
-8.559927e-01 4.887022e-01 0.000000e+00 
-8.444815e-01 4.872186e-01 0.000000e+00 
-8.313758e-01 4.853779e-01 0.000000e+00 
-8.161590e-01 4.830916e-01 0.000000e+00 
-7.983987e-01 4.802667e-01 0.000000e+00 
-7.775126e-01 4.763828e-01 0.000000e+00 
-7.525414e-01 4.710975e-01 0.000000e+00 
-7.211635e-01 4.644381e-01 0.000000e+00 
-6.820116e-01 4.557534e-01 0.000000e+00 
-6.337534e-01 4.406963e-01 0.000000e+00 
-5.721047e-01 4.156728e-01 0.000000e+00 
-4.808183e-01 3.825913e-01 0.000000e+00 
-3.533715e-01 3.321147e-01 0.000000e+00 
-1.938159e-01 2.019107e-01 0.000000e+00 
-7.849167e-02 -1.449466e-02 0.000000e+00 
1.420913e-14 -1.330327e-01 0.000000e+00 
7.849167e-02 -1.449466e-02 0.000000e+00 
1.938159e-01 2.019107e-01 0.000000e+00 
3.533715e-01 3.321147e-01 0.000000e+00 
4.808183e-01 3.825913e-01 0.000000e+00 
5.721047e-01 4.156728e-01 0.000000e+00 
6.337534e-01 4.406963e-01 0.000000e+00 
6.820116e-01 4.557534e-01 0.000000e+00 
7.211635e-01 4.644381e-01 0.000000e+00 
7.525414e-01 4.710975e-01 0.000000e+00 
7.775126e-01 4.763828e-01 0.000000e+00 
7.983987e-01 4.802667e-01 0.000000e+00 
8.161590e-01 4.830916e-01 0.000000e+00 
8.313758e-01 4.853779e-01 0.000000e+00 
8.444815e-01 4.872186e-01 0.000000e+00 
8.559927e-01 4.887022e-01 0.000000e+00 
8.662074e-01 4.898805e-01 0.000000e+00 
8.753719e-01 4.908561e-01 0.000000e+00 
8.836630e-01 4.916506e-01 0.000000e+00 
8.912570e-01 4.923086e-01 0.000000e+00 
8.982759e-01 4.928430e-01 0.000000e+00 
9.048282e-01 4.932871e-01 0.000000e+00 
9.109958e-01 4.936484e-01 0.000000e+00 
9.168528e-01 4.939476e-01 0.000000e+00 
9.224561e-01 4.941895e-01 0.000000e+00 
9.278547e-01 4.943886e-01 0.000000e+00 
9.330881e-01 4.945484e-01 0.000000e+00 
9.381890e-01 4.946786e-01 0.000000e+00 
9.431848e-01 4.947818e-01 0.000000e+00 
9.480971e-01 4.948647e-01 0.000000e+00 
9.529448e-01 4.949292e-01 0.000000e+00 
9.577419e-01 4.949800e-01 0.000000e+00 
9.625010e-01 4.950187e-01 0.000000e+00 
9.672311e-01 4.950482e-01 0.000000e+00 
9.719403e-01 4.950700e-01 0.000000e+00 
9.766340e-01 4.950859e-01 0.000000e+00 
9.813172e-01 4.950972e-01 0.000000e+00 
9.859930e-01 4.951048e-01 0.000000e+00 
9.906643e-01 4.951098e-01 0.000000e+00 
9.953328e-01 4.951124e-01 0.000000e+00 
1.000000e+00 4.951133e-01 0.000000e+00 
-1.000000e+00 4.891059e-01 0.000000e+00 
-9.931022e-01 4.891035e-01 0.000000e+00 
-9.862019e-01 4.890962e-01 0.000000e+00 
-9.792958e-01 4.890831e-01 0.000000e+00 
-9.723807e-01 4.890629e-01 0.000000e+00 
-9.654517e-01 4.890341e-01 0.000000e+00 
-9.585036e-01 4.889940e-01 0.000000e+00 
-9.515285e-01 4.889402e-01 0.000000e+00 
-9.445177e-01 4.888688e-01 0.000000e+00 
-9.374591e-01 4.887761e-01 0.000000e+00 
-9.303388e-01 4.886567e-01 0.000000e+00 
-9.231387e-01 4.885055e-01 0.000000e+00 
-9.158374e-01 4.883146e-01 0.000000e+00 
-9.084083e-01 4.880773e-01 0.000000e+00 
-9.008194e-01 4.877821e-01 0.000000e+00 
-8.930321e-01 4.874199e-01 0.000000e+00 
-8.849990e-01 4.869739e-01 0.000000e+00 
-8.766650e-01 4.864315e-01 0.000000e+00 
-8.679599e-01 4.857685e-01 0.000000e+00 
-8.588047e-01 4.849670e-01 0.000000e+00 
-8.490957e-01 4.839911e-01 0.000000e+00 
-8.387200e-01 4.828133e-01 0.000000e+00 
-8.275259e-01 4.813810e-01 0.000000e+00 
-8.153466e-01 4.796535e-01 0.000000e+00 
-8.019486e-01 4.775444e-01 0.000000e+00 
-7.870950e-01 4.749753e-01 0.000000e+00 
-7.704438e-01 4.718162e-01 0.000000e+00 
-7.516043e-01 4.679532e-01 0.000000e+00 
-7.299676e-01 4.631094e-01 0.000000e+00 
-7.050142e-01 4.569433e-01 0.000000e+00 
-6.759182e-01 4.490523e-01 0.000000e+00 
-6.415067e-01 4.390338e-01 0.000000e+00 
-5.996409e-01 4.255500e-01 0.000000e+00 
-5.493648e-01 4.062850e-01 0.000000e+00 
-4.890594e-01 3.795580e-01 0.000000e+00 
-4.143671e-01 3.432366e-01 0.000000e+00 
-3.166670e-01 2.886803e-01 0.000000e+00 
-2.027633e-01 1.940383e-01 0.000000e+00 
-1.015066e-01 6.200761e-02 0.000000e+00 
-3.087318e-02 -6.847346e-02 0.000000e+00 
-6.708559e-15 -1.279269e-01 0.000000e+00 
3.087318e-02 -6.847346e-02 0.000000e+00 
1.015066e-01 6.200761e-02 0.000000e+00 
2.027633e-01 1.940383e-01 0.000000e+00 
3.166670e-01 2.886803e-01 0.000000e+00 
4.143671e-01 3.432366e-01 0.000000e+00 
4.890594e-01 3.795580e-01 0.000000e+00 
5.493648e-01 4.062850e-01 0.000000e+00 
5.996409e-01 4.255500e-01 0.000000e+00 
6.415067e-01 4.390338e-01 0.000000e+00 
6.759182e-01 4.490523e-01 0.000000e+00 
7.050142e-01 4.569433e-01 0.000000e+00 
7.299676e-01 4.631094e-01 0.000000e+00 
7.516043e-01 4.679532e-01 0.000000e+00 
7.704438e-01 4.718162e-01 0.000000e+00 
7.870950e-01 4.749753e-01 0.000000e+00 
8.019486e-01 4.775444e-01 0.000000e+00 
8.153466e-01 4.796535e-01 0.000000e+00 
8.275259e-01 4.813810e-01 0.000000e+00 
8.387200e-01 4.828133e-01 0.000000e+00 
8.490957e-01 4.839911e-01 0.000000e+00 
8.588047e-01 4.849670e-01 0.000000e+00 
8.679599e-01 4.857685e-01 0.000000e+00 
8.766650e-01 4.864315e-01 0.000000e+00 
8.849990e-01 4.869739e-01 0.000000e+00 
8.930321e-01 4.874199e-01 0.000000e+00 
9.008194e-01 4.877821e-01 0.000000e+00 
9.084083e-01 4.880773e-01 0.000000e+00 
9.158374e-01 4.883146e-01 0.000000e+00 
9.231387e-01 4.885055e-01 0.000000e+00 
9.303388e-01 4.886567e-01 0.000000e+00 
9.374591e-01 4.887761e-01 0.000000e+00 
9.445177e-01 4.888688e-01 0.000000e+00 
9.515285e-01 4.889402e-01 0.000000e+00 
9.585036e-01 4.889940e-01 0.000000e+00 
9.654517e-01 4.890341e-01 0.000000e+00 
9.723807e-01 4.890629e-01 0.000000e+00 
9.792958e-01 4.890831e-01 0.000000e+00 
9.862019e-01 4.890962e-01 0.000000e+00 
9.931022e-01 4.891035e-01 0.000000e+00 
1.000000e+00 4.891059e-01 0.000000e+00 
-1.000000e+00 4.808190e-01 0.000000e+00 
-9.909474e-01 4.808142e-01 0.000000e+00 
-9.818906e-01 4.807992e-01 0.000000e+00 
-9.728249e-01 4.807729e-01 0.000000e+00 
-9.637449e-01 4.807330e-01 0.000000e+00 
-9.546440e-01 4.806766e-01 0.000000e+00 
-9.455142e-01 4.805996e-01 0.000000e+00 
-9.363453e-01 4.804973e-01 0.000000e+00 
-9.271250e-01 4.803635e-01 0.000000e+00 
-9.178377e-01 4.801917e-01 0.000000e+00 
-9.084650e-01 4.799728e-01 0.000000e+00 
-8.989837e-01 4.796979e-01 0.000000e+00 
-8.893662e-01 4.793543e-01 0.000000e+00 
-8.795794e-01 4.789294e-01 0.000000e+00 
-8.695823e-01 4.784054e-01 0.000000e+00 
-8.593277e-01 4.777650e-01 0.000000e+00 
-8.487559e-01 4.769827e-01 0.000000e+00 
-8.377997e-01 4.760341e-01 0.000000e+00 
-8.263724e-01 4.748829e-01 0.000000e+00 
-8.143788e-01 4.734940e-01 0.000000e+00 
-8.016934e-01 4.718147e-01 0.000000e+00 
-7.881808e-01 4.697930e-01 0.000000e+00 
-7.736581e-01 4.673515e-01 0.000000e+00 
-7.579323e-01 4.644106e-01 0.000000e+00 
-7.407365e-01 4.608483e-01 0.000000e+00 