<VTKFile type='UnstructuredGrid' version='0.1' byte_order='BigEndian'> 
<UnstructuredGrid> 
<Piece NumberOfPoints='  1089 ' NumberOfCells='  1024 '> 
<Points> 
<DataArray type='Float32' NumberOfComponents='3' Format='ascii'> 
0.000000e+00 0.000000e+00 0.000000e+00 
3.125000e-02 0.000000e+00 0.000000e+00 
6.250000e-02 0.000000e+00 0.000000e+00 
9.375000e-02 0.000000e+00 0.000000e+00 
1.250000e-01 0.000000e+00 0.000000e+00 
1.562500e-01 0.000000e+00 0.000000e+00 
1.875000e-01 0.000000e+00 0.000000e+00 
2.187500e-01 0.000000e+00 0.000000e+00 
2.500000e-01 0.000000e+00 0.000000e+00 
2.812500e-01 0.000000e+00 0.000000e+00 
3.125000e-01 0.000000e+00 0.000000e+00 
3.437500e-01 0.000000e+00 0.000000e+00 
3.750000e-01 0.000000e+00 0.000000e+00 
4.062500e-01 0.000000e+00 0.000000e+00 
4.375000e-01 0.000000e+00 0.000000e+00 
4.687500e-01 0.000000e+00 0.000000e+00 
5.000000e-01 0.000000e+00 0.000000e+00 
5.312500e-01 0.000000e+00 0.000000e+00 
5.625000e-01 0.000000e+00 0.000000e+00 
5.937500e-01 0.000000e+00 0.000000e+00 
6.250000e-01 0.000000e+00 0.000000e+00 
6.562500e-01 0.000000e+00 0.000000e+00 
6.875000e-01 0.000000e+00 0.000000e+00 
7.187500e-01 0.000000e+00 0.000000e+00 
7.500000e-01 0.000000e+00 0.000000e+00 
7.812500e-01 0.000000e+00 0.000000e+00 
8.125000e-01 0.000000e+00 0.000000e+00 
8.437500e-01 0.000000e+00 0.000000e+00 
8.750000e-01 0.000000e+00 0.000000e+00 
9.062500e-01 0.000000e+00 0.000000e+00 
9.375000e-01 0.000000e+00 0.000000e+00 
9.687500e-01 0.000000e+00 0.000000e+00 
1.000000e+00 0.000000e+00 0.000000e+00 
0.000000e+00 3.125000e-02 0.000000e+00 
3.125000e-02 3.125000e-02 0.000000e+00 
6.250000e-02 3.125000e-02 0.000000e+00 
9.375000e-02 3.125000e-02 0.000000e+00 
1.250000e-01 3.125000e-02 0.000000e+00 
1.562500e-01 3.125000e-02 0.000000e+00 
1.875000e-01 3.125000e-02 0.000000e+00 
2.187500e-01 3.125000e-02 0.000000e+00 
2.500000e-01 3.125000e-02 0.000000e+00 
2.812500e-01 3.125000e-02 0.000000e+00 
3.125000e-01 3.125000e-02 0.000000e+00 
3.437500e-01 3.125000e-02 0.000000e+00 
3.750000e-01 3.125000e-02 0.000000e+00 
4.062500e-01 3.125000e-02 0.000000e+00 
4.375000e-01 3.125000e-02 0.000000e+00 
4.687500e-01 3.125000e-02 0.000000e+00 
5.000000e-01 3.125000e-02 0.000000e+00 
5.312500e-01 3.125000e-02 0.000000e+00 
5.625000e-01 3.125000e-02 0.000000e+00 
5.937500e-01 3.125000e-02 0.000000e+00 
6.250000e-01 3.125000e-02 0.000000e+00 
6.562500e-01 3.125000e-02 0.000000e+00 
6.875000e-01 3.125000e-02 0.000000e+00 
7.187500e-01 3.125000e-02 0.000000e+00 
7.500000e-01 3.125000e-02 0.000000e+00 
7.812500e-01 3.125000e-02 0.000000e+00 
8.125000e-01 3.125000e-02 0.000000e+00 
8.437500e-01 3.125000e-02 0.000000e+00 
8.750000e-01 3.125000e-02 0.000000e+00 
9.062500e-01 3.125000e-02 0.000000e+00 
9.375000e-01 3.125000e-02 0.000000e+00 
9.687500e-01 3.125000e-02 0.000000e+00 
1.000000e+00 3.125000e-02 0.000000e+00 
0.000000e+00 6.250000e-02 0.000000e+00 
3.125000e-02 6.250000e-02 0.000000e+00 
6.250000e-02 6.250000e-02 0.000000e+00 
9.375000e-02 6.250000e-02 0.000000e+00 
1.250000e-01 6.250000e-02 0.000000e+00 
1.562500e-01 6.250000e-02 0.000000e+00 
1.875000e-01 6.250000e-02 0.000000e+00 
2.187500e-01 6.250000e-02 0.000000e+00 
2.500000e-01 6.250000e-02 0.000000e+00 
2.812500e-01 6.250000e-02 0.000000e+00 
3.125000e-01 6.250000e-02 0.000000e+00 
3.437500e-01 6.250000e-02 0.000000e+00 
3.750000e-01 6.250000e-02 0.000000e+00 
4.062500e-01 6.250000e-02 0.000000e+00 
4.375000e-01 6.250000e-02 0.000000e+00 
4.687500e-01 6.250000e-02 0.000000e+00 
5.000000e-01 6.250000e-02 0.000000e+00 
5.312500e-01 6.250000e-02 0.000000e+00 
5.625000e-01 6.250000e-02 0.000000e+00 
5.937500e-01 6.250000e-02 0.000000e+00 
6.250000e-01 6.250000e-02 0.000000e+00 
6.562500e-01 6.250000e-02 0.000000e+00 
6.875000e-01 6.250000e-02 0.000000e+00 
7.187500e-01 6.250000e-02 0.000000e+00 
7.500000e-01 6.250000e-02 0.000000e+00 
7.812500e-01 6.250000e-02 0.000000e+00 
8.125000e-01 6.250000e-02 0.000000e+00 
8.437500e-01 6.250000e-02 0.000000e+00 
8.750000e-01 6.250000e-02 0.000000e+00 
9.062500e-01 6.250000e-02 0.000000e+00 
9.375000e-01 6.250000e-02 0.000000e+00 
9.687500e-01 6.250000e-02 0.000000e+00 
1.000000e+00 6.250000e-02 0.000000e+00 
0.000000e+00 9.375000e-02 0.000000e+00 
3.125000e-02 9.375000e-02 0.000000e+00 
6.250000e-02 9.375000e-02 0.000000e+00 
9.375000e-02 9.375000e-02 0.000000e+00 
1.250000e-01 9.375000e-02 0.000000e+00 
1.562500e-01 9.375000e-02 0.000000e+00 
1.875000e-01 9.375000e-02 0.000000e+00 
2.187500e-01 9.375000e-02 0.000000e+00 
2.500000e-01 9.375000e-02 0.000000e+00 
2.812500e-01 9.375000e-02 0.000000e+00 
3.125000e-01 9.375000e-02 0.000000e+00 
3.437500e-01 9.375000e-02 0.000000e+00 
3.750000e-01 9.375000e-02 0.000000e+00 
4.062500e-01 9.375000e-02 0.000000e+00 
4.375000e-01 9.375000e-02 0.000000e+00 
4.687500e-01 9.375000e-02 0.000000e+00 
5.000000e-01 9.375000e-02 0.000000e+00 
5.312500e-01 9.375000e-02 0.000000e+00 
5.625000e-01 9.375000e-02 0.000000e+00 
5.937500e-01 9.375000e-02 0.000000e+00 
6.250000e-01 9.375000e-02 0.000000e+00 
6.562500e-01 9.375000e-02 0.000000e+00 
6.875000e-01 9.375000e-02 0.000000e+00 
7.187500e-01 9.375000e-02 0.000000e+00 
7.500000e-01 9.375000e-02 0.000000e+00 
7.812500e-01 9.375000e-02 0.000000e+00 
8.125000e-01 9.375000e-02 0.000000e+00 
8.437500e-01 9.375000e-02 0.000000e+00 
8.750000e-01 9.375000e-02 0.000000e+00 
9.062500e-01 9.375000e-02 0.000000e+00 
9.375000e-01 9.375000e-02 0.000000e+00 
9.687500e-01 9.375000e-02 0.000000e+00 
1.000000e+00 9.375000e-02 0.000000e+00 
0.000000e+00 1.250000e-01 0.000000e+00 
3.125000e-02 1.250000e-01 0.000000e+00 
6.250000e-02 1.250000e-01 0.000000e+00 
9.375000e-02 1.250000e-01 0.000000e+00 
1.250000e-01 1.250000e-01 0.000000e+00 
1.562500e-01 1.250000e-01 0.000000e+00 
1.875000e-01 1.250000e-01 0.000000e+00 
2.187500e-01 1.250000e-01 0.000000e+00 
2.500000e-01 1.250000e-01 0.000000e+00 
2.812500e-01 1.250000e-01 0.000000e+00 
3.125000e-01 1.250000e-01 0.000000e+00 
3.437500e-01 1.250000e-01 0.000000e+00 
3.750000e-01 1.250000e-01 0.000000e+00 
4.062500e-01 1.250000e-01 0.000000e+00 
4.375000e-01 1.250000e-01 0.000000e+00 
4.687500e-01 1.250000e-01 0.000000e+00 
5.000000e-01 1.250000e-01 0.000000e+00 
5.312500e-01 1.250000e-01 0.000000e+00 
5.625000e-01 1.250000e-01 0.000000e+00 
5.937500e-01 1.250000e-01 0.000000e+00 
6.250000e-01 1.250000e-01 0.000000e+00 
6.562500e-01 1.250000e-01 0.000000e+00 
6.875000e-01 1.250000e-01 0.000000e+00 
7.187500e-01 1.250000e-01 0.000000e+00 
7.500000e-01 1.250000e-01 0.000000e+00 
7.812500e-01 1.250000e-01 0.000000e+00 
8.125000e-01 1.250000e-01 0.000000e+00 
8.437500e-01 1.250000e-01 0.000000e+00 
8.750000e-01 1.250000e-01 0.000000e+00 
9.062500e-01 1.250000e-01 0.000000e+00 
9.375000e-01 1.250000e-01 0.000000e+00 
9.687500e-01 1.250000e-01 0.000000e+00 
1.000000e+00 1.250000e-01 0.000000e+00 
0.000000e+00 1.562500e-01 0.000000e+00 
3.125000e-02 1.562500e-01 0.000000e+00 
6.250000e-02 1.562500e-01 0.000000e+00 
9.375000e-02 1.562500e-01 0.000000e+00 
1.250000e-01 1.562500e-01 0.000000e+00 
1.562500e-01 1.562500e-01 0.000000e+00 
1.875000e-01 1.562500e-01 0.000000e+00 
2.187500e-01 1.562500e-01 0.000000e+00 
2.500000e-01 1.562500e-01 0.000000e+00 
2.812500e-01 1.562500e-01 0.000000e+00 
3.125000e-01 1.562500e-01 0.000000e+00 
3.437500e-01 1.562500e-01 0.000000e+00 
3.750000e-01 1.562500e-01 0.000000e+00 
4.062500e-01 1.562500e-01 0.000000e+00 
4.375000e-01 1.562500e-01 0.000000e+00 
4.687500e-01 1.562500e-01 0.000000e+00 
5.000000e-01 1.562500e-01 0.000000e+00 
5.312500e-01 1.562500e-01 0.000000e+00 
5.625000e-01 1.562500e-01 0.000000e+00 
5.937500e-01 1.562500e-01 0.000000e+00 
6.250000e-01 1.562500e-01 0.000000e+00 
6.562500e-01 1.562500e-01 0.000000e+00 
6.875000e-01 1.562500e-01 0.000000e+00 
7.187500e-01 1.562500e-01 0.000000e+00 
7.500000e-01 1.562500e-01 0.000000e+00 
7.812500e-01 1.562500e-01 0.000000e+00 
8.125000e-01 1.562500e-01 0.000000e+00 
8.437500e-01 1.562500e-01 0.000000e+00 
8.750000e-01 1.562500e-01 0.000000e+00 
9.062500e-01 1.562500e-01 0.000000e+00 
9.375000e-01 1.562500e-01 0.000000e+00 
9.687500e-01 1.562500e-01 0.000000e+00 
1.000000e+00 1.562500e-01 0.000000e+00 
0.000000e+00 1.875000e-01 0.000000e+00 
3.125000e-02 1.875000e-01 0.000000e+00 
6.250000e-02 1.875000e-01 0.000000e+00 
9.375000e-02 1.875000e-01 0.000000e+00 
1.250000e-01 1.875000e-01 0.000000e+00 
1.562500e-01 1.875000e-01 0.000000e+00 
1.875000e-01 1.875000e-01 0.000000e+00 
2.187500e-01 1.875000e-01 0.000000e+00 
2.500000e-01 1.875000e-01 0.000000e+00 
2.812500e-01 1.875000e-01 0.000000e+00 
3.125000e-01 1.875000e-01 0.000000e+00 
3.437500e-01 1.875000e-01 0.000000e+00 
3.750000e-01 1.875000e-01 0.000000e+00 
4.062500e-01 1.875000e-01 0.000000e+00 
4.375000e-01 1.875000e-01 0.000000e+00 
4.687500e-01 1.875000e-01 0.000000e+00 
5.000000e-01 1.875000e-01 0.000000e+00 
5.312500e-01 1.875000e-01 0.000000e+00 
5.625000e-01 1.875000e-01 0.000000e+00 
5.937500e-01 1.875000e-01 0.000000e+00 
6.250000e-01 1.875000e-01 0.000000e+00 
6.562500e-01 1.875000e-01 0.000000e+00 
6.875000e-01 1.875000e-01 0.000000e+00 
7.187500e-01 1.875000e-01 0.000000e+00 
7.500000e-01 1.875000e-01 0.000000e+00 
7.812500e-01 1.875000e-01 0.000000e+00 
8.125000e-01 1.875000e-01 0.000000e+00 
8.437500e-01 1.875000e-01 0.000000e+00 
8.750000e-01 1.875000e-01 0.000000e+00 
9.062500e-01 1.875000e-01 0.000000e+00 
9.375000e-01 1.875000e-01 0.000000e+00 
9.687500e-01 1.875000e-01 0.000000e+00 
1.000000e+00 1.875000e-01 0.000000e+00 
0.000000e+00 2.187500e-01 0.000000e+00 
3.125000e-02 2.187500e-01 0.000000e+00 
6.250000e-02 2.187500e-01 0.000000e+00 
9.375000e-02 2.187500e-01 0.000000e+00 
1.250000e-01 2.187500e-01 0.000000e+00 
1.562500e-01 2.187500e-01 0.000000e+00 
1.875000e-01 2.187500e-01 0.000000e+00 
2.187500e-01 2.187500e-01 0.000000e+00 
2.500000e-01 2.187500e-01 0.000000e+00 
2.812500e-01 2.187500e-01 0.000000e+00 
3.125000e-01 2.187500e-01 0.000000e+00 
3.437500e-01 2.187500e-01 0.000000e+00 
3.750000e-01 2.187500e-01 0.000000e+00 
[...]
<PointData Scalars='scalars'>
<DataArray type='Float32' NumberOfComponents='3' Name='velocity' Format='ascii'> 
0.000000e+00 0.000000e+00 0.000000e+00 
6.231054e+00 0.000000e+00 0.000000e+00 
1.237151e+01 0.000000e+00 0.000000e+00 
1.833641e+01 0.000000e+00 0.000000e+00 
2.404671e+01 0.000000e+00 0.000000e+00 
2.943829e+01 0.000000e+00 0.000000e+00 
3.445626e+01 0.000000e+00 0.000000e+00 
3.906491e+01 0.000000e+00 0.000000e+00 
4.323750e+01 0.000000e+00 0.000000e+00 
4.696511e+01 0.000000e+00 0.000000e+00 
5.024456e+01 0.000000e+00 0.000000e+00 
5.308510e+01 0.000000e+00 0.000000e+00 
5.549716e+01 0.000000e+00 0.000000e+00 
5.749645e+01 0.000000e+00 0.000000e+00 
5.909530e+01 0.000000e+00 0.000000e+00 
6.030444e+01 0.000000e+00 0.000000e+00 
6.112749e+01 0.000000e+00 0.000000e+00 
6.156106e+01 0.000000e+00 0.000000e+00 
6.159193e+01 0.000000e+00 0.000000e+00 
6.119706e+01 0.000000e+00 0.000000e+00 
6.034201e+01 0.000000e+00 0.000000e+00 
5.898367e+01 0.000000e+00 0.000000e+00 
5.706780e+01 0.000000e+00 0.000000e+00 
5.453856e+01 0.000000e+00 0.000000e+00 
5.133251e+01 0.000000e+00 0.000000e+00 
4.740003e+01 0.000000e+00 0.000000e+00 
4.269210e+01 0.000000e+00 0.000000e+00 
3.719819e+01 0.000000e+00 0.000000e+00 
3.092140e+01 0.000000e+00 0.000000e+00 
2.393220e+01 0.000000e+00 0.000000e+00 
1.632754e+01 0.000000e+00 0.000000e+00 
8.283235e+00 0.000000e+00 0.000000e+00 
0.000000e+00 0.000000e+00 0.000000e+00 
0.000000e+00 -6.226140e+00 0.000000e+00 
6.196873e+00 -6.180818e+00 0.000000e+00 
1.230291e+01 -6.046276e+00 0.000000e+00 
1.823296e+01 -5.829838e+00 0.000000e+00 
2.390797e+01 -5.540803e+00 0.000000e+00 
2.926386e+01 -5.192701e+00 0.000000e+00 
3.424605e+01 -4.798924e+00 0.000000e+00 
3.881912e+01 -4.374650e+00 0.000000e+00 
4.295689e+01 -3.932707e+00 0.000000e+00 
4.665078e+01 -3.485550e+00 0.000000e+00 
4.989822e+01 -3.041895e+00 0.000000e+00 
5.270874e+01 -2.608819e+00 0.000000e+00 
5.509321e+01 -2.189339e+00 0.000000e+00 
5.706748e+01 -1.784449e+00 0.000000e+00 
5.864422e+01 -1.391560e+00 0.000000e+00 
5.983422e+01 -1.006245e+00 0.000000e+00 
6.064136e+01 -6.213893e-01 0.000000e+00 
6.106238e+01 -2.285337e-01 0.000000e+00 
6.108444e+01 1.822929e-01 0.000000e+00 
6.068476e+01 6.216328e-01 0.000000e+00 
5.982949e+01 1.099895e+00 0.000000e+00 
5.847594e+01 1.626789e+00 0.000000e+00 
5.657066e+01 2.209368e+00 0.000000e+00 
5.405831e+01 2.851919e+00 0.000000e+00 
5.087627e+01 3.552398e+00 0.000000e+00 
4.697525e+01 4.303126e+00 0.000000e+00 
4.230683e+01 5.085779e+00 0.000000e+00 
3.686040e+01 5.873661e+00 0.000000e+00 
3.063913e+01 6.626884e+00 0.000000e+00 
2.371271e+01 7.297979e+00 0.000000e+00 
1.617728e+01 7.831883e+00 0.000000e+00 
8.206811e+00 8.177963e+00 0.000000e+00 
0.000000e+00 8.297787e+00 0.000000e+00 
0.000000e+00 -1.243602e+01 0.000000e+00 
6.098830e+00 -1.234470e+01 0.000000e+00 
1.210606e+01 -1.207450e+01 0.000000e+00 
1.793598e+01 -1.163948e+01 0.000000e+00 
2.350933e+01 -1.105930e+01 0.000000e+00 
2.876227e+01 -1.036070e+01 0.000000e+00 
3.364096e+01 -9.571367e+00 0.000000e+00 
3.811096e+01 -8.721456e+00 0.000000e+00 
4.214750e+01 -7.837140e+00 0.000000e+00 
4.574331e+01 -6.943138e+00 0.000000e+00 
4.889729e+01 -6.057013e+00 0.000000e+00 
5.162003e+01 -5.192755e+00 0.000000e+00 
5.392360e+01 -4.356292e+00 0.000000e+00 
5.582448e+01 -3.549553e+00 0.000000e+00 
5.733612e+01 -2.767198e+00 0.000000e+00 
5.846973e+01 -2.000469e+00 0.000000e+00 
5.922984e+01 -1.235042e+00 0.000000e+00 
5.961374e+01 -4.542561e-01 0.000000e+00 
5.960949e+01 3.618365e-01 0.000000e+00 
5.919530e+01 1.233957e+00 0.000000e+00 
5.833882e+01 2.182910e+00 0.000000e+00 
5.699883e+01 3.227742e+00 0.000000e+00 
5.512389e+01 4.382666e+00 0.000000e+00 
5.266039e+01 5.655987e+00 0.000000e+00 
4.954780e+01 7.043992e+00 0.000000e+00 
4.573815e+01 8.531248e+00 0.000000e+00 
4.118447e+01 1.008182e+01 0.000000e+00 
3.587628e+01 1.164248e+01 0.000000e+00 
2.981662e+01 1.313450e+01 0.000000e+00 
2.307323e+01 1.446349e+01 0.000000e+00 
1.573948e+01 1.552074e+01 0.000000e+00 
7.984199e+00 1.620581e+01 0.000000e+00 
0.000000e+00 1.644307e+01 0.000000e+00 
0.000000e+00 -1.843168e+01 0.000000e+00 
5.945008e+00 -1.829414e+01 0.000000e+00 
1.179695e+01 -1.788768e+01 0.000000e+00 
1.746918e+01 -1.723355e+01 0.000000e+00 
2.288182e+01 -1.636218e+01 0.000000e+00 
2.797153e+01 -1.531420e+01 0.000000e+00 
3.268541e+01 -1.413199e+01 0.000000e+00 
3.699089e+01 -1.286112e+01 0.000000e+00 
4.086531e+01 -1.154118e+01 0.000000e+00 
4.430367e+01 -1.020919e+01 0.000000e+00 
4.730728e+01 -8.891275e+00 0.000000e+00 
4.988855e+01 -7.608098e+00 0.000000e+00 
5.206146e+01 -6.368114e+00 0.000000e+00 
5.384358e+01 -5.173915e+00 0.000000e+00 
5.524968e+01 -4.017173e+00 0.000000e+00 
5.629158e+01 -2.884720e+00 0.000000e+00 
5.697497e+01 -1.755061e+00 0.000000e+00 
5.729790e+01 -6.035063e-01 0.000000e+00 
5.725000e+01 5.995834e-01 0.000000e+00 
5.681094e+01 1.884758e+00 0.000000e+00 
5.595082e+01 3.282854e+00 0.000000e+00 
5.463071e+01 4.821941e+00 0.000000e+00 
5.280257e+01 6.523193e+00 0.000000e+00 
5.041543e+01 8.398938e+00 0.000000e+00 
4.741243e+01 1.044399e+01 0.000000e+00 
4.374767e+01 1.263568e+01 0.000000e+00 
3.937685e+01 1.492116e+01 0.000000e+00 
3.428971e+01 1.722181e+01 0.000000e+00 
2.848948e+01 1.942136e+01 0.000000e+00 
2.204054e+01 2.138032e+01 0.000000e+00 
1.503211e+01 2.293840e+01 0.000000e+00 
7.624344e+00 2.394776e+01 0.000000e+00 
0.000000e+00 2.429727e+01 0.000000e+00 
0.000000e+00 -2.432623e+01 0.000000e+00 
5.745037e+00 -2.414125e+01 0.000000e+00 
1.139495e+01 -2.359573e+01 0.000000e+00 
1.686170e+01 -2.271805e+01 0.000000e+00 
2.206453e+01 -2.155096e+01 0.000000e+00 
2.694075e+01 -2.014927e+01 0.000000e+00 
3.143867e+01 -1.857156e+01 0.000000e+00 
3.552821e+01 -1.687886e+01 0.000000e+00 
3.918950e+01 -1.512512e+01 0.000000e+00 
4.242066e+01 -1.335918e+01 0.000000e+00 
4.522610e+01 -1.161607e+01 0.000000e+00 
4.762075e+01 -9.922363e+00 0.000000e+00 
4.962105e+01 -8.289018e+00 0.000000e+00 
5.124610e+01 -6.718650e+00 0.000000e+00 
5.251234e+01 -5.199935e+00 0.000000e+00 
5.343252e+01 -3.715040e+00 0.000000e+00 
5.401373e+01 -2.235512e+00 0.000000e+00 
5.425512e+01 -7.288522e-01 0.000000e+00 
5.414828e+01 8.438357e-01 0.000000e+00 
5.367486e+01 2.522354e+00 0.000000e+00 
5.280810e+01 4.347101e+00 0.000000e+00 
5.151215e+01 6.354489e+00 0.000000e+00 
4.974335e+01 8.572505e+00 0.000000e+00 
4.745445e+01 1.101704e+01 0.000000e+00 
4.459342e+01 1.368199e+01 0.000000e+00 
4.111745e+01 1.653755e+01 0.000000e+00 
3.698592e+01 1.951550e+01 0.000000e+00 
3.218924e+01 2.251263e+01 0.000000e+00 
2.673097e+01 2.537786e+01 0.000000e+00 
2.067131e+01 2.792853e+01 0.000000e+00 
1.409372e+01 2.995672e+01 0.000000e+00 
7.146854e+00 3.126981e+01 0.000000e+00 
0.000000e+00 3.172462e+01 0.000000e+00 
0.000000e+00 -2.994964e+01 0.000000e+00 
5.507797e+00 -2.971597e+01 0.000000e+00 
1.091785e+01 -2.902800e+01 0.000000e+00 
1.614052e+01 -2.792200e+01 0.000000e+00 
2.109378e+01 -2.645425e+01 0.000000e+00 
2.571594e+01 -2.469501e+01 0.000000e+00 
2.995662e+01 -2.272021e+01 0.000000e+00 
3.378903e+01 -2.060726e+01 0.000000e+00 
3.719646e+01 -1.842485e+01 0.000000e+00 
4.018100e+01 -1.623387e+01 0.000000e+00 
4.275054e+01 -1.407785e+01 0.000000e+00 
4.492319e+01 -1.198897e+01 0.000000e+00 
4.671810e+01 -9.980049e+00 0.000000e+00 
4.815629e+01 -8.053324e+00 0.000000e+00 
4.925600e+01 -6.194029e+00 0.000000e+00 
5.003110e+01 -4.379572e+00 0.000000e+00 
5.049025e+01 -2.574530e+00 0.000000e+00 
5.063388e+01 -7.389299e-01 0.000000e+00 
5.045582e+01 1.174963e+00 0.000000e+00 
4.994004e+01 3.215553e+00 0.000000e+00 
4.906342e+01 5.432187e+00 0.000000e+00 
4.779384e+01 7.868968e+00 0.000000e+00 
4.609281e+01 1.056029e+01 0.000000e+00 
4.391771e+01 1.352540e+01 0.000000e+00 
4.122246e+01 1.675754e+01 0.000000e+00 
3.796835e+01 2.022044e+01 0.000000e+00 
3.411962e+01 2.383180e+01 0.000000e+00 
2.966786e+01 2.746581e+01 0.000000e+00 
2.461764e+01 3.093917e+01 0.000000e+00 
1.902408e+01 3.402975e+01 0.000000e+00 
1.296402e+01 3.648608e+01 0.000000e+00 
6.571721e+00 3.807547e+01 0.000000e+00 
0.000000e+00 3.862589e+01 0.000000e+00 
0.000000e+00 -3.534941e+01 0.000000e+00 
5.237567e+00 -3.506587e+01 0.000000e+00 
1.037460e+01 -3.423189e+01 0.000000e+00 
1.531978e+01 -3.289291e+01 0.000000e+00 
1.998990e+01 -3.111975e+01 0.000000e+00 
2.432454e+01 -2.899970e+01 0.000000e+00 
2.827499e+01 -2.662716e+01 0.000000e+00 
3.181824e+01 -2.409674e+01 0.000000e+00 
3.494122e+01 -2.149238e+01 0.000000e+00 
3.765039e+01 -1.888667e+01 0.000000e+00 
3.995745e+01 -1.633164e+01 0.000000e+00 
4.188389e+01 -1.386403e+01 0.000000e+00 
4.345168e+01 -1.149834e+01 0.000000e+00 
4.468376e+01 -9.235402e+00 0.000000e+00 
4.560018e+01 -7.057117e+00 0.000000e+00 
4.621592e+01 -4.935505e+00 0.000000e+00 
4.654117e+01 -2.828764e+00 0.000000e+00 
4.657773e+01 -6.893921e-01 0.000000e+00 
4.632170e+01 1.538196e+00 0.000000e+00 
4.575962e+01 3.910578e+00 0.000000e+00 
4.487226e+01 6.484927e+00 0.000000e+00 
4.363166e+01 9.312427e+00 0.000000e+00 
4.200508e+01 1.243304e+01 0.000000e+00 
3.995528e+01 1.586905e+01 0.000000e+00 
3.744298e+01 1.961308e+01 0.000000e+00 
3.443453e+01 2.362285e+01 0.000000e+00 
3.090001e+01 2.780349e+01 0.000000e+00 
2.683297e+01 3.200841e+01 0.000000e+00 
2.223937e+01 3.602571e+01 0.000000e+00 
1.716898e+01 3.959751e+01 0.000000e+00 
1.169103e+01 4.243459e+01 0.000000e+00 
5.923435e+00 4.426878e+01 0.000000e+00 
0.000000e+00 4.490402e+01 0.000000e+00 
0.000000e+00 -4.045309e+01 0.000000e+00 
4.936975e+00 -4.011814e+01 0.000000e+00 
9.770766e+00 -3.913408e+01 0.000000e+00 
1.440863e+01 -3.755643e+01 0.000000e+00 
1.876649e+01 -3.547220e+01 0.000000e+00 
2.278567e+01 -3.298725e+01 0.000000e+00 
2.641963e+01 -3.021585e+01 0.000000e+00 
2.964958e+01 -2.727073e+01 0.000000e+00 
3.246650e+01 -2.425148e+01 0.000000e+00 
3.488139e+01 -2.124236e+01 0.000000e+00 
3.690985e+01 -1.830337e+01 0.000000e+00 
3.857665e+01 -1.547525e+01 0.000000e+00 
3.990635e+01 -1.277345e+01 0.000000e+00 
4.092364e+01 -1.019685e+01 0.000000e+00 
4.165002e+01 -7.723614e+00 0.000000e+00 
4.210146e+01 -5.320297e+00 0.000000e+00 
4.228935e+01 -2.938806e+00 0.000000e+00 
4.221685e+01 -5.245864e-01 0.000000e+00 
4.188214e+01 1.985214e+00 0.000000e+00 
4.127444e+01 4.654465e+00 0.000000e+00 
4.037833e+01 7.547310e+00 0.000000e+00 
3.917044e+01 1.072103e+01 0.000000e+00 
3.762387e+01 1.422046e+01 0.000000e+00 
3.570749e+01 1.807031e+01 0.000000e+00 
3.338930e+01 2.226260e+01 0.000000e+00 
3.064173e+01 2.674957e+01 0.000000e+00 
2.744150e+01 3.142525e+01 0.000000e+00 
2.378496e+01 3.612472e+01 0.000000e+00 
1.968013e+01 4.061125e+01 0.000000e+00 
1.517123e+01 4.459630e+01 0.000000e+00 
1.031944e+01 4.775884e+01 0.000000e+00 
5.224689e+00 4.980156e+01 0.000000e+00 
0.000000e+00 5.050885e+01 0.000000e+00 
0.000000e+00 -4.524588e+01 0.000000e+00 
4.606739e+00 -4.485844e+01 0.000000e+00 
9.108140e+00 -4.372120e+01 0.000000e+00 
1.341058e+01 -4.190121e+01 0.000000e+00 
1.742968e+01 -3.950291e+01 0.000000e+00 
2.110911e+01 -3.665256e+01 0.000000e+00 
2.440507e+01 -3.348539e+01 0.000000e+00 
2.730340e+01 -3.013314e+01 0.000000e+00 
2.979938e+01 -2.671107e+01 0.000000e+00 
3.190859e+01 -2.331485e+01 0.000000e+00 
3.365039e+01 -2.001175e+01 0.000000e+00 
3.505249e+01 -1.684563e+01 0.000000e+00 
3.614167e+01 -1.383219e+01 0.000000e+00 
3.694393e+01 -1.096762e+01 0.000000e+00 
3.748176e+01 -8.226072e+00 0.000000e+00 
3.777177e+01 -5.568375e+00 0.000000e+00 
3.782617e+01 -2.940547e+00 0.000000e+00 
3.764922e+01 -2.812184e-01 0.000000e+00 
3.724093e+01 2.478778e+00 0.000000e+00 
3.659311e+01 5.409952e+00 0.000000e+00 
3.569405e+01 8.582155e+00 0.000000e+00 
3.452496e+01 1.205797e+01 0.000000e+00 
3.306491e+01 1.588591e+01 0.000000e+00 
3.128918e+01 2.009264e+01 0.000000e+00 
2.917344e+01 2.466912e+01 0.000000e+00 
2.669682e+01 2.956263e+01 0.000000e+00 
2.384333e+01 3.465736e+01 0.000000e+00 
2.061274e+01 3.977258e+01 0.000000e+00 
1.701562e+01 4.465080e+01 0.000000e+00 
1.309064e+01 4.897813e+01 0.000000e+00 
8.890631e+00 5.240853e+01 0.000000e+00 
4.496703e+00 5.462175e+01 0.000000e+00 
0.000000e+00 5.538792e+01 0.000000e+00 
0.000000e+00 -4.969296e+01 0.000000e+00 
4.246914e+00 -4.925206e+01 0.000000e+00 
8.387147e+00 -4.795926e+01 0.000000e+00 
1.232699e+01 -4.589422e+01 0.000000e+00 
1.598263e+01 -4.318051e+01 0.000000e+00 
1.930075e+01 -3.996630e+01 0.000000e+00 
2.224104e+01 -3.640894e+01 0.000000e+00 
2.479418e+01 -3.265979e+01 0.000000e+00 
2.696011e+01 -2.884970e+01 0.000000e+00 
2.875861e+01 -2.508523e+01 0.000000e+00 
3.021265e+01 -2.144002e+01 0.000000e+00 
3.135222e+01 -1.796018e+01 0.000000e+00 
3.220581e+01 -1.466078e+01 0.000000e+00 
3.280008e+01 -1.153471e+01 0.000000e+00 
3.315794e+01 -8.551803e+00 0.000000e+00 
3.329614e+01 -5.667120e+00 0.000000e+00 
3.322723e+01 -2.821067e+00 0.000000e+00 
3.295629e+01 5.397539e-02 0.000000e+00 
3.248470e+01 3.032715e+00 0.000000e+00 
3.180676e+01 6.191307e+00 0.000000e+00 
3.091402e+01 9.604236e+00 0.000000e+00 
2.979239e+01 1.333821e+01 0.000000e+00 
2.842653e+01 1.744436e+01 0.000000e+00 
2.679846e+01 2.195043e+01 0.000000e+00 
2.489139e+01 2.684592e+01 0.000000e+00 
2.269179e+01 3.207337e+01 0.000000e+00 
2.019111e+01 3.750848e+01 0.000000e+00 
1.739324e+01 4.295733e+01 0.000000e+00 
1.431146e+01 4.814601e+01 0.000000e+00 
1.097916e+01 5.274121e+01 0.000000e+00 
7.440641e+00 5.637883e+01 0.000000e+00 
3.757962e+00 5.872277e+01 0.000000e+00 
0.000000e+00 5.953383e+01 0.000000e+00 
0.000000e+00 -5.376563e+01 0.000000e+00 
3.857960e+00 -5.327089e+01 0.000000e+00 
7.608972e+00 -5.182171e+01 0.000000e+00 
1.116028e+01 -4.951161e+01 0.000000e+00 
1.442963e+01 -4.648470e+01 0.000000e+00 
1.736745e+01 -4.291251e+01 0.000000e+00 
1.993756e+01 -3.897539e+01 0.000000e+00 
2.213570e+01 -3.484463e+01 0.000000e+00 
2.396647e+01 -3.066630e+01 0.000000e+00 
2.545356e+01 -2.655710e+01 0.000000e+00 
2.662303e+01 -2.259599e+01 0.000000e+00 
2.750652e+01 -1.883035e+01 0.000000e+00 
2.813358e+01 -1.527372e+01 0.000000e+00 
2.853087e+01 -1.191520e+01 0.000000e+00 
2.872114e+01 -8.719895e+00 0.000000e+00 
2.872075e+01 -5.637270e+00 0.000000e+00 
2.854211e+01 -2.602346e+00 0.000000e+00 
2.819078e+01 4.580773e-01 0.000000e+00 
2.766915e+01 3.623502e+00 0.000000e+00 
2.697370e+01 6.974716e+00 0.000000e+00 
2.609896e+01 1.058973e+01 0.000000e+00 
2.503528e+01 1.453824e+01 0.000000e+00 
2.377271e+01 1.887286e+01 0.000000e+00 
2.229990e+01 2.362152e+01 0.000000e+00 
2.060750e+01 2.877166e+01 0.000000e+00 
1.868938e+01 3.426140e+01 0.000000e+00 
1.654451e+01 3.995902e+01 0.000000e+00 
1.418103e+01 4.566022e+01 0.000000e+00 
1.161507e+01 5.107887e+01 0.000000e+00 
8.874809e+00 5.586831e+01 0.000000e+00 
5.996109e+00 5.965330e+01 0.000000e+00 
3.022194e+00 6.208867e+01 0.000000e+00 
0.000000e+00 6.293094e+01 0.000000e+00 
0.000000e+00 -5.743536e+01 0.000000e+00 
3.439829e+00 -5.688691e+01 0.000000e+00 
6.773811e+00 -5.528226e+01 0.000000e+00 
9.911377e+00 -5.272981e+01 0.000000e+00 
1.277301e+01 -4.939560e+01 0.000000e+00 
1.531366e+01 -4.547570e+01 0.000000e+00 
1.750189e+01 -4.117405e+01 0.000000e+00 
1.933849e+01 -3.668188e+01 0.000000e+00 
2.083269e+01 -3.215973e+01 0.000000e+00 
2.201137e+01 -2.773345e+01 0.000000e+00 
2.290319e+01 -2.348610e+01 0.000000e+00 
2.354057e+01 -1.946525e+01 0.000000e+00 
2.395346e+01 -1.568201e+01 0.000000e+00 
2.416778e+01 -1.212115e+01 0.000000e+00 
2.420556e+01 -8.742878e+00 0.000000e+00 
2.408230e+01 -5.491126e+00 0.000000e+00 
2.380986e+01 -2.295984e+00 0.000000e+00 
2.339392e+01 9.207143e-01 0.000000e+00 
2.283754e+01 4.242373e+00 0.000000e+00 
2.213914e+01 7.753409e+00 0.000000e+00 
2.129585e+01 1.153420e+01 0.000000e+00 
2.030226e+01 1.565620e+01 0.000000e+00 
1.915335e+01 2.017232e+01 0.000000e+00 
1.784426e+01 2.510964e+01 0.000000e+00 
1.637263e+01 3.045295e+01 0.000000e+00 
1.473969e+01 3.613592e+01 0.000000e+00 
1.295150e+01 4.202069e+01 0.000000e+00 
1.102053e+01 4.789511e+01 0.000000e+00 
8.965332e+00 5.346525e+01 0.000000e+00 
6.809127e+00 5.837707e+01 0.000000e+00 
4.579243e+00 6.225107e+01 0.000000e+00 
2.300939e+00 6.473966e+01 0.000000e+00 
0.000000e+00 6.559975e+01 0.000000e+00 
0.000000e+00 -6.067144e+01 0.000000e+00 
2.993298e+00 -6.007022e+01 0.000000e+00 
5.883421e+00 -5.831324e+01 0.000000e+00 
8.583407e+00 -5.552470e+01 0.000000e+00 
1.101768e+01 -5.189365e+01 0.000000e+00 
1.314647e+01 -4.764143e+01 0.000000e+00 
1.494355e+01 -4.299583e+01 0.000000e+00 
1.641464e+01 -3.816748e+01 0.000000e+00 
1.757322e+01 -3.333054e+01 0.000000e+00 
1.844875e+01 -2.861870e+01 0.000000e+00 
1.907166e+01 -2.411787e+01 0.000000e+00 
1.947439e+01 -1.987482e+01 0.000000e+00 
1.968651e+01 -1.589740e+01 0.000000e+00 
1.973262e+01 -1.216571e+01 0.000000e+00 
1.963349e+01 -8.634859e+00 0.000000e+00 
1.940335e+01 -5.243639e+00 0.000000e+00 
1.905319e+01 -1.917508e+00 0.000000e+00 
1.858854e+01 1.425806e+00 0.000000e+00 
1.801288e+01 4.872913e+00 0.000000e+00 
1.732633e+01 8.510709e+00 0.000000e+00 
1.652834e+01 1.242096e+01 0.000000e+00 
1.561744e+01 1.667564e+01 0.000000e+00 
1.459319e+01 2.132687e+01 0.000000e+00 
1.345685e+01 2.639991e+01 0.000000e+00 
1.221261e+01 3.187632e+01 0.000000e+00 
1.086859e+01 3.768552e+01 0.000000e+00 
9.437468e+00 4.368456e+01 0.000000e+00 
7.935556e+00 4.965624e+01 0.000000e+00 
6.383456e+00 5.530288e+01 0.000000e+00 
4.799363e+00 6.026890e+01 0.000000e+00 
3.202315e+00 6.417675e+01 0.000000e+00 
1.600534e+00 6.668266e+01 0.000000e+00 
0.000000e+00 6.754804e+01 0.000000e+00 
0.000000e+00 -6.344739e+01 0.000000e+00 
2.518279e+00 -6.279516e+01 0.000000e+00 
4.937926e+00 -6.089145e+01 0.000000e+00 
7.177137e+00 -5.787692e+01 0.000000e+00 
9.165699e+00 -5.396436e+01 0.000000e+00 
1.086973e+01 -4.940077e+01 0.000000e+00 
1.226864e+01 -4.443744e+01 0.000000e+00 
1.337264e+01 -3.930361e+01 0.000000e+00 
1.419897e+01 -3.418567e+01 0.000000e+00 
1.477870e+01 -2.922380e+01 0.000000e+00 
1.514316e+01 -2.450542e+01 0.000000e+00 
1.532394e+01 -2.007544e+01 0.000000e+00 
1.534947e+01 -1.593778e+01 0.000000e+00 
1.524249e+01 -1.206756e+01 0.000000e+00 
1.502203e+01 -8.414853e+00 0.000000e+00 
1.470080e+01 -4.913564e+00 0.000000e+00 
1.428864e+01 -1.485117e+00 0.000000e+00 
1.379084e+01 1.956188e+00 0.000000e+00 
1.321110e+01 5.499251e+00 0.000000e+00 
1.255107e+01 9.232491e+00 0.000000e+00 
1.181232e+01 1.323794e+01 0.000000e+00 
1.099705e+01 1.758699e+01 0.000000e+00 
1.010905e+01 2.232985e+01 0.000000e+00 
9.155231e+00 2.748903e+01 0.000000e+00 
8.145768e+00 3.304231e+01 0.000000e+00 
7.095052e+00 3.891498e+01 0.000000e+00 
6.021516e+00 4.496025e+01 0.000000e+00 
4.944700e+00 5.095828e+01 0.000000e+00 
3.886406e+00 5.661180e+01 0.000000e+00 
2.859804e+00 6.156890e+01 0.000000e+00 
1.875600e+00 6.545989e+01 0.000000e+00 
9.264249e-01 6.795016e+01 0.000000e+00 
0.000000e+00 6.880937e+01 0.000000e+00 
0.000000e+00 -6.573194e+01 0.000000e+00 
2.015463e+00 -6.503147e+01 0.000000e+00 
3.938832e+00 -6.298950e+01 0.000000e+00 
5.695181e+00 -5.976352e+01 0.000000e+00 
7.220984e+00 -5.559023e+01 0.000000e+00 
8.488910e+00 -5.074199e+01 0.000000e+00 
9.484115e+00 -4.549281e+01 0.000000e+00 
1.022091e+01 -4.008915e+01 0.000000e+00 
1.071949e+01 -3.472813e+01 0.000000e+00 
1.101160e+01 -2.955488e+01 0.000000e+00 
1.112848e+01 -2.465707e+01 0.000000e+00 
1.110003e+01 -2.007692e+01 0.000000e+00 
1.095282e+01 -1.581388e+01 0.000000e+00 
1.070723e+01 -1.183805e+01 0.000000e+00 
1.038019e+01 -8.094559e+00 0.000000e+00 
9.982664e+00 -4.512969e+00 0.000000e+00 
9.523242e+00 -1.011159e+00 0.000000e+00 
9.006826e+00 2.499120e+00 0.000000e+00 
8.437301e+00 6.108317e+00 0.000000e+00 
7.817743e+00 9.905305e+00 0.000000e+00 
7.151682e+00 1.397149e+01 0.000000e+00 
6.444748e+00 1.837654e+01 0.000000e+00 
5.704609e+00 2.316790e+01 0.000000e+00 
4.943355e+00 2.836450e+01 0.000000e+00 
4.176485e+00 3.394003e+01 0.000000e+00 
3.423849e+00 3.981591e+01 0.000000e+00 
2.708736e+00 4.584278e+01 0.000000e+00 
2.052997e+00 5.180077e+01 0.000000e+00 
1.478879e+00 5.739666e+01 0.000000e+00 