<VTKFile type='UnstructuredGrid' version='0.1' byte_order='BigEndian'> 
<UnstructuredGrid> 
<Piece NumberOfPoints='   833 ' NumberOfCells='   256 '> 
<Points> 
<DataArray type='Float32' NumberOfComponents='3' Format='ascii'> 
0.000000e+00 0.000000e+00 0.000000e+00 
3.200000e+04 0.000000e+00 0.000000e+00 
6.400000e+04 0.000000e+00 0.000000e+00 
9.600000e+04 0.000000e+00 0.000000e+00 
1.280000e+05 0.000000e+00 0.000000e+00 
1.600000e+05 0.000000e+00 0.000000e+00 
1.920000e+05 0.000000e+00 0.000000e+00 
2.240000e+05 0.000000e+00 0.000000e+00 
2.560000e+05 0.000000e+00 0.000000e+00 
2.880000e+05 0.000000e+00 0.000000e+00 
3.200000e+05 0.000000e+00 0.000000e+00 
3.520000e+05 0.000000e+00 0.000000e+00 
3.840000e+05 0.000000e+00 0.000000e+00 
4.160000e+05 0.000000e+00 0.000000e+00 
4.480000e+05 0.000000e+00 0.000000e+00 
4.800000e+05 0.000000e+00 0.000000e+00 
5.120000e+05 0.000000e+00 0.000000e+00 
0.000000e+00 3.200000e+04 0.000000e+00 
3.200000e+04 3.200000e+04 0.000000e+00 
6.400000e+04 3.200000e+04 0.000000e+00 
9.600000e+04 3.200000e+04 0.000000e+00 
1.280000e+05 3.200000e+04 0.000000e+00 
1.600000e+05 3.200000e+04 0.000000e+00 
1.920000e+05 3.200000e+04 0.000000e+00 
2.240000e+05 3.200000e+04 0.000000e+00 
2.560000e+05 3.200000e+04 0.000000e+00 
2.880000e+05 3.200000e+04 0.000000e+00 
3.200000e+05 3.200000e+04 0.000000e+00 
3.520000e+05 3.200000e+04 0.000000e+00 
3.840000e+05 3.200000e+04 0.000000e+00 
4.160000e+05 3.200000e+04 0.000000e+00 
4.480000e+05 3.200000e+04 0.000000e+00 
4.800000e+05 3.200000e+04 0.000000e+00 
5.120000e+05 3.200000e+04 0.000000e+00 
0.000000e+00 6.400000e+04 0.000000e+00 
3.200000e+04 6.400000e+04 0.000000e+00 
6.400000e+04 6.400000e+04 0.000000e+00 
9.600000e+04 6.400000e+04 0.000000e+00 
1.280000e+05 6.400000e+04 0.000000e+00 
1.600000e+05 6.400000e+04 0.000000e+00 
1.920000e+05 6.400000e+04 0.000000e+00 
2.240000e+05 6.400000e+04 0.000000e+00 
2.560000e+05 6.400000e+04 0.000000e+00 
2.880000e+05 6.400000e+04 0.000000e+00 
3.200000e+05 6.400000e+04 0.000000e+00 
3.520000e+05 6.400000e+04 0.000000e+00 
3.840000e+05 6.400000e+04 0.000000e+00 
4.160000e+05 6.400000e+04 0.000000e+00 
4.480000e+05 6.400000e+04 0.000000e+00 
4.800000e+05 6.400000e+04 0.000000e+00 
5.120000e+05 6.400000e+04 0.000000e+00 
0.000000e+00 9.600000e+04 0.000000e+00 
3.200000e+04 9.600000e+04 0.000000e+00 
6.400000e+04 9.600000e+04 0.000000e+00 
9.600000e+04 9.600000e+04 0.000000e+00 
1.280000e+05 9.600000e+04 0.000000e+00 
1.600000e+05 9.600000e+04 0.000000e+00 
1.920000e+05 9.600000e+04 0.000000e+00 
2.240000e+05 9.600000e+04 0.000000e+00 
2.560000e+05 9.600000e+04 0.000000e+00 
2.880000e+05 9.600000e+04 0.000000e+00 
3.200000e+05 9.600000e+04 0.000000e+00 
3.520000e+05 9.600000e+04 0.000000e+00 
3.840000e+05 9.600000e+04 0.000000e+00 
4.160000e+05 9.600000e+04 0.000000e+00 
4.480000e+05 9.600000e+04 0.000000e+00 
4.800000e+05 9.600000e+04 0.000000e+00 
5.120000e+05 9.600000e+04 0.000000e+00 
0.000000e+00 1.280000e+05 0.000000e+00 
3.200000e+04 1.280000e+05 0.000000e+00 
6.400000e+04 1.280000e+05 0.000000e+00 
9.600000e+04 1.280000e+05 0.000000e+00 
1.280000e+05 1.280000e+05 0.000000e+00 
1.600000e+05 1.280000e+05 0.000000e+00 
1.920000e+05 1.280000e+05 0.000000e+00 
2.240000e+05 1.280000e+05 0.000000e+00 
2.560000e+05 1.280000e+05 0.000000e+00 
2.880000e+05 1.280000e+05 0.000000e+00 
3.200000e+05 1.280000e+05 0.000000e+00 
3.520000e+05 1.280000e+05 0.000000e+00 
3.840000e+05 1.280000e+05 0.000000e+00 
4.160000e+05 1.280000e+05 0.000000e+00 
4.480000e+05 1.280000e+05 0.000000e+00 
4.800000e+05 1.280000e+05 0.000000e+00 
5.120000e+05 1.280000e+05 0.000000e+00 
0.000000e+00 1.600000e+05 0.000000e+00 
3.200000e+04 1.600000e+05 0.000000e+00 
6.400000e+04 1.600000e+05 0.000000e+00 
9.600000e+04 1.600000e+05 0.000000e+00 
1.280000e+05 1.600000e+05 0.000000e+00 
1.600000e+05 1.600000e+05 0.000000e+00 
1.920000e+05 1.600000e+05 0.000000e+00 
2.240000e+05 1.600000e+05 0.000000e+00 
2.560000e+05 1.600000e+05 0.000000e+00 
2.880000e+05 1.600000e+05 0.000000e+00 
3.200000e+05 1.600000e+05 0.000000e+00 
3.520000e+05 1.600000e+05 0.000000e+00 
3.840000e+05 1.600000e+05 0.000000e+00 
4.160000e+05 1.600000e+05 0.000000e+00 
4.480000e+05 1.600000e+05 0.000000e+00 
4.800000e+05 1.600000e+05 0.000000e+00 
5.120000e+05 1.600000e+05 0.000000e+00 
0.000000e+00 1.920000e+05 0.000000e+00 
3.200000e+04 1.920000e+05 0.000000e+00 
6.400000e+04 1.920000e+05 0.000000e+00 
9.600000e+04 1.920000e+05 0.000000e+00 
1.280000e+05 1.920000e+05 0.000000e+00 
1.600000e+05 1.920000e+05 0.000000e+00 
1.920000e+05 1.920000e+05 0.000000e+00 
2.240000e+05 1.920000e+05 0.000000e+00 
2.560000e+05 1.920000e+05 0.000000e+00 
2.880000e+05 1.920000e+05 0.000000e+00 
3.200000e+05 1.920000e+05 0.000000e+00 
3.520000e+05 1.920000e+05 0.000000e+00 
3.840000e+05 1.920000e+05 0.000000e+00 
4.160000e+05 1.920000e+05 0.000000e+00 
4.480000e+05 1.920000e+05 0.000000e+00 
4.800000e+05 1.920000e+05 0.000000e+00 
5.120000e+05 1.920000e+05 0.000000e+00 
0.000000e+00 2.240000e+05 0.000000e+00 
3.200000e+04 2.240000e+05 0.000000e+00 
6.400000e+04 2.240000e+05 0.000000e+00 
9.600000e+04 2.240000e+05 0.000000e+00 
1.280000e+05 2.240000e+05 0.000000e+00 
1.600000e+05 2.240000e+05 0.000000e+00 
1.920000e+05 2.240000e+05 0.000000e+00 
2.240000e+05 2.240000e+05 0.000000e+00 
2.560000e+05 2.240000e+05 0.000000e+00 
2.880000e+05 2.240000e+05 0.000000e+00 
3.200000e+05 2.240000e+05 0.000000e+00 
3.520000e+05 2.240000e+05 0.000000e+00 
3.840000e+05 2.240000e+05 0.000000e+00 
4.160000e+05 2.240000e+05 0.000000e+00 
4.480000e+05 2.240000e+05 0.000000e+00 
4.800000e+05 2.240000e+05 0.000000e+00 
5.120000e+05 2.240000e+05 0.000000e+00 
0.000000e+00 2.560000e+05 0.000000e+00 
3.200000e+04 2.560000e+05 0.000000e+00 
6.400000e+04 2.560000e+05 0.000000e+00 
9.600000e+04 2.560000e+05 0.000000e+00 
1.280000e+05 2.560000e+05 0.000000e+00 
1.600000e+05 2.560000e+05 0.000000e+00 
1.920000e+05 2.560000e+05 0.000000e+00 
2.240000e+05 2.560000e+05 0.000000e+00 
2.560000e+05 2.560000e+05 0.000000e+00 
2.880000e+05 2.560000e+05 0.000000e+00 
3.200000e+05 2.560000e+05 0.000000e+00 
3.520000e+05 2.560000e+05 0.000000e+00 
3.840000e+05 2.560000e+05 0.000000e+00 
4.160000e+05 2.560000e+05 0.000000e+00 
4.480000e+05 2.560000e+05 0.000000e+00 
4.800000e+05 2.560000e+05 0.000000e+00 
5.120000e+05 2.560000e+05 0.000000e+00 
0.000000e+00 2.880000e+05 0.000000e+00 
3.200000e+04 2.880000e+05 0.000000e+00 
6.400000e+04 2.880000e+05 0.000000e+00 
9.600000e+04 2.880000e+05 0.000000e+00 
1.280000e+05 2.880000e+05 0.000000e+00 
1.600000e+05 2.880000e+05 0.000000e+00 
1.920000e+05 2.880000e+05 0.000000e+00 
2.240000e+05 2.880000e+05 0.000000e+00 
2.560000e+05 2.880000e+05 0.000000e+00 
2.880000e+05 2.880000e+05 0.000000e+00 
3.200000e+05 2.880000e+05 0.000000e+00 
3.520000e+05 2.880000e+05 0.000000e+00 
3.840000e+05 2.880000e+05 0.000000e+00 
4.160000e+05 2.880000e+05 0.000000e+00 
4.480000e+05 2.880000e+05 0.000000e+00 
4.800000e+05 2.880000e+05 0.000000e+00 
5.120000e+05 2.880000e+05 0.000000e+00 
0.000000e+00 3.200000e+05 0.000000e+00 
3.200000e+04 3.200000e+05 0.000000e+00 
6.400000e+04 3.200000e+05 0.000000e+00 
9.600000e+04 3.200000e+05 0.000000e+00 
1.280000e+05 3.200000e+05 0.000000e+00 
1.600000e+05 3.200000e+05 0.000000e+00 
1.920000e+05 3.200000e+05 0.000000e+00 
2.240000e+05 3.200000e+05 0.000000e+00 
2.560000e+05 3.200000e+05 0.000000e+00 
2.880000e+05 3.200000e+05 0.000000e+00 
3.200000e+05 3.200000e+05 0.000000e+00 
3.520000e+05 3.200000e+05 0.000000e+00 
3.840000e+05 3.200000e+05 0.000000e+00 
4.160000e+05 3.200000e+05 0.000000e+00 
4.480000e+05 3.200000e+05 0.000000e+00 
4.800000e+05 3.200000e+05 0.000000e+00 
5.120000e+05 3.200000e+05 0.000000e+00 
0.000000e+00 3.520000e+05 0.000000e+00 
3.200000e+04 3.520000e+05 0.000000e+00 
6.400000e+04 3.520000e+05 0.000000e+00 
9.600000e+04 3.520000e+05 0.000000e+00 
1.280000e+05 3.520000e+05 0.000000e+00 
1.600000e+05 3.520000e+05 0.000000e+00 
1.920000e+05 3.520000e+05 0.000000e+00 
2.240000e+05 3.520000e+05 0.000000e+00 
2.560000e+05 3.520000e+05 0.000000e+00 
2.880000e+05 3.520000e+05 0.000000e+00 
3.200000e+05 3.520000e+05 0.000000e+00 
3.520000e+05 3.520000e+05 0.000000e+00 
3.840000e+05 3.520000e+05 0.000000e+00 
4.160000e+05 3.520000e+05 0.000000e+00 
4.480000e+05 3.520000e+05 0.000000e+00 
4.800000e+05 3.520000e+05 0.000000e+00 
5.120000e+05 3.520000e+05 0.000000e+00 
0.000000e+00 3.840000e+05 0.000000e+00 
3.200000e+04 3.840000e+05 0.000000e+00 
6.400000e+04 3.840000e+05 0.000000e+00 
9.600000e+04 3.840000e+05 0.000000e+00 
1.280000e+05 3.840000e+05 0.000000e+00 
1.600000e+05 3.840000e+05 0.000000e+00 
1.920000e+05 3.840000e+05 0.000000e+00 
2.240000e+05 3.840000e+05 0.000000e+00 
2.560000e+05 3.840000e+05 0.000000e+00 
2.880000e+05 3.840000e+05 0.000000e+00 
3.200000e+05 3.840000e+05 0.000000e+00 
3.520000e+05 3.840000e+05 0.000000e+00 
3.840000e+05 3.840000e+05 0.000000e+00 
4.160000e+05 3.840000e+05 0.000000e+00 
4.480000e+05 3.840000e+05 0.000000e+00 
4.800000e+05 3.840000e+05 0.000000e+00 
5.120000e+05 3.840000e+05 0.000000e+00 
0.000000e+00 4.160000e+05 0.000000e+00 
3.200000e+04 4.160000e+05 0.000000e+00 
6.400000e+04 4.160000e+05 0.000000e+00 
9.600000e+04 4.160000e+05 0.000000e+00 
1.280000e+05 4.160000e+05 0.000000e+00 
1.600000e+05 4.160000e+05 0.000000e+00 
1.920000e+05 4.160000e+05 0.000000e+00 
2.240000e+05 4.160000e+05 0.000000e+00 
2.560000e+05 4.160000e+05 0.000000e+00 
2.880000e+05 4.160000e+05 0.000000e+00 
3.200000e+05 4.160000e+05 0.000000e+00 
3.520000e+05 4.160000e+05 0.000000e+00 
3.840000e+05 4.160000e+05 0.000000e+00 
4.160000e+05 4.160000e+05 0.000000e+00 
4.480000e+05 4.160000e+05 0.000000e+00 
4.800000e+05 4.160000e+05 0.000000e+00 
5.120000e+05 4.160000e+05 0.000000e+00 
0.000000e+00 4.480000e+05 0.000000e+00 
3.200000e+04 4.480000e+05 0.000000e+00 
6.400000e+04 4.480000e+05 0.000000e+00 
9.600000e+04 4.480000e+05 0.000000e+00 
1.280000e+05 4.480000e+05 0.000000e+00 
1.600000e+05 4.480000e+05 0.000000e+00 
[...]
<PointData Scalars='scalars'>
<DataArray type='Float32' NumberOfComponents='3' Name='velocity' Format='ascii'> 
0.000000e+00 0.000000e+00 0.000000e+00 
-2.397818e-12 0.000000e+00 0.000000e+00 
-4.445504e-12 0.000000e+00 0.000000e+00 
-5.837569e-12 0.000000e+00 0.000000e+00 
-6.355977e-12 0.000000e+00 0.000000e+00 
-5.906836e-12 0.000000e+00 0.000000e+00 
-4.543441e-12 0.000000e+00 0.000000e+00 
-2.467055e-12 0.000000e+00 0.000000e+00 
9.768125e-25 0.000000e+00 0.000000e+00 
2.467055e-12 0.000000e+00 0.000000e+00 
4.543441e-12 0.000000e+00 0.000000e+00 
5.906836e-12 0.000000e+00 0.000000e+00 
6.355977e-12 0.000000e+00 0.000000e+00 
5.837569e-12 0.000000e+00 0.000000e+00 
4.445504e-12 0.000000e+00 0.000000e+00 
2.397818e-12 0.000000e+00 0.000000e+00 
0.000000e+00 0.000000e+00 0.000000e+00 
0.000000e+00 2.488983e-12 0.000000e+00 
-2.489273e-12 2.308449e-12 0.000000e+00 
-4.618047e-12 1.789163e-12 0.000000e+00 
-6.070015e-12 9.976154e-13 0.000000e+00 
-6.616602e-12 4.157052e-14 0.000000e+00 
-6.156020e-12 -9.388487e-13 0.000000e+00 
-4.739626e-12 -1.789191e-12 0.000000e+00 
-2.575207e-12 -2.367206e-12 0.000000e+00 
1.172916e-24 -2.572046e-12 0.000000e+00 
2.575207e-12 -2.367206e-12 0.000000e+00 
4.739626e-12 -1.789191e-12 0.000000e+00 
6.156020e-12 -9.388487e-13 0.000000e+00 
6.616602e-12 4.157052e-14 0.000000e+00 
6.070015e-12 9.976154e-13 0.000000e+00 
4.618047e-12 1.789163e-12 0.000000e+00 
2.489273e-12 2.308449e-12 0.000000e+00 
0.000000e+00 2.488983e-12 0.000000e+00 
0.000000e+00 5.163562e-12 0.000000e+00 
-2.761646e-12 4.792566e-12 0.000000e+00 
-5.133438e-12 3.723360e-12 0.000000e+00 
-6.767350e-12 2.087732e-12 0.000000e+00 
-7.402314e-12 1.030799e-13 0.000000e+00 
-6.910722e-12 -1.942069e-12 0.000000e+00 
-5.335997e-12 -3.723543e-12 0.000000e+00 
-2.904737e-12 -4.938267e-12 0.000000e+00 
1.080020e-24 -5.369452e-12 0.000000e+00 
2.904737e-12 -4.938267e-12 0.000000e+00 
5.335997e-12 -3.723543e-12 0.000000e+00 
6.910722e-12 -1.942069e-12 0.000000e+00 
7.402314e-12 1.030799e-13 0.000000e+00 
6.767350e-12 2.087732e-12 0.000000e+00 
5.133438e-12 3.723360e-12 0.000000e+00 
2.761646e-12 4.792566e-12 0.000000e+00 
0.000000e+00 5.163562e-12 0.000000e+00 
0.000000e+00 8.203654e-12 0.000000e+00 
-3.205991e-12 7.624411e-12 0.000000e+00 
-5.979819e-12 5.949113e-12 0.000000e+00 
-7.923619e-12 3.369509e-12 0.000000e+00 
-8.719392e-12 2.129118e-13 0.000000e+00 
-8.188830e-12 -3.068856e-12 0.000000e+00 
-6.354053e-12 -5.949664e-12 0.000000e+00 
-3.470021e-12 -7.924918e-12 0.000000e+00 
1.483210e-24 -8.628003e-12 0.000000e+00 
3.470021e-12 -7.924918e-12 0.000000e+00 
6.354053e-12 -5.949664e-12 0.000000e+00 
8.188830e-12 -3.068856e-12 0.000000e+00 
8.719392e-12 2.129118e-13 0.000000e+00 
7.923619e-12 3.369509e-12 0.000000e+00 
5.979819e-12 5.949113e-12 0.000000e+00 
3.205991e-12 7.624411e-12 0.000000e+00 
0.000000e+00 8.203654e-12 0.000000e+00 
0.000000e+00 1.177147e-11 0.000000e+00 
-3.797065e-12 1.096325e-11 0.000000e+00 
-7.119218e-12 8.612592e-12 0.000000e+00 
-9.507556e-12 4.955273e-12 0.000000e+00 
-1.055925e-11 4.189185e-13 0.000000e+00 
-1.000646e-11 -4.364772e-12 0.000000e+00 
-7.821332e-12 -8.615705e-12 0.000000e+00 
-4.291069e-12 -1.155431e-11 0.000000e+00 
1.447364e-24 -1.260450e-11 0.000000e+00 
4.291069e-12 -1.155431e-11 0.000000e+00 
7.821332e-12 -8.615705e-12 0.000000e+00 
1.000646e-11 -4.364772e-12 0.000000e+00 
1.055925e-11 4.189185e-13 0.000000e+00 
9.507556e-12 4.955273e-12 0.000000e+00 
7.119218e-12 8.612592e-12 0.000000e+00 
3.797065e-12 1.096325e-11 0.000000e+00 
0.000000e+00 1.177147e-11 0.000000e+00 
0.000000e+00 1.598619e-11 0.000000e+00 
-4.476778e-12 1.493427e-11 0.000000e+00 
-8.457111e-12 1.184972e-11 0.000000e+00 
-1.142471e-11 6.975942e-12 0.000000e+00 
-1.286259e-11 8.054471e-13 0.000000e+00 
-1.235200e-11 -5.844455e-12 0.000000e+00 
-9.755166e-12 -1.185956e-11 0.000000e+00 
-5.384792e-12 -1.606353e-11 0.000000e+00 
1.927294e-24 -1.757207e-11 0.000000e+00 
5.384792e-12 -1.606353e-11 0.000000e+00 
9.755166e-12 -1.185956e-11 0.000000e+00 
1.235200e-11 -5.844455e-12 0.000000e+00 
1.286259e-11 8.054471e-13 0.000000e+00 
1.142471e-11 6.975942e-12 0.000000e+00 
8.457111e-12 1.184972e-11 0.000000e+00 
4.476778e-12 1.493427e-11 0.000000e+00 
0.000000e+00 1.598619e-11 0.000000e+00 
0.000000e+00 2.087853e-11 0.000000e+00 
-5.131358e-12 1.958763e-11 0.000000e+00 
-9.796477e-12 1.576014e-11 0.000000e+00 
-1.345425e-11 9.580045e-12 0.000000e+00 
-1.545568e-11 1.515601e-12 0.000000e+00 
-1.513354e-11 -7.466885e-12 0.000000e+00 
-1.211841e-11 -1.580988e-11 0.000000e+00 
-6.732649e-12 -2.170972e-11 0.000000e+00 
1.608670e-24 -2.383062e-11 0.000000e+00 
6.732649e-12 -2.170972e-11 0.000000e+00 
1.211841e-11 -1.580988e-11 0.000000e+00 
1.513354e-11 -7.466885e-12 0.000000e+00 
1.545568e-11 1.515601e-12 0.000000e+00 
1.345425e-11 9.580045e-12 0.000000e+00 
9.796477e-12 1.576014e-11 0.000000e+00 
5.131358e-12 1.958763e-11 0.000000e+00 
0.000000e+00 2.087853e-11 0.000000e+00 
0.000000e+00 2.632323e-11 0.000000e+00 
-5.569937e-12 2.483221e-11 0.000000e+00 
-1.078416e-11 2.035134e-11 0.000000e+00 
-1.515438e-11 1.290952e-11 0.000000e+00 
-1.792782e-11 2.789719e-12 0.000000e+00 
-1.808069e-11 -9.062508e-12 0.000000e+00 
-1.475004e-11 -2.050361e-11 0.000000e+00 
-8.225470e-12 -2.863973e-11 0.000000e+00 
2.805169e-25 -3.152515e-11 0.000000e+00 
8.225470e-12 -2.863973e-11 0.000000e+00 
1.475004e-11 -2.050361e-11 0.000000e+00 
1.808069e-11 -9.062508e-12 0.000000e+00 
1.792782e-11 2.789719e-12 0.000000e+00 
1.515438e-11 1.290952e-11 0.000000e+00 
1.078416e-11 2.035134e-11 0.000000e+00 
5.569937e-12 2.483221e-11 0.000000e+00 
0.000000e+00 2.632323e-11 0.000000e+00 
0.000000e+00 3.196227e-11 0.000000e+00 
-5.525866e-12 3.035091e-11 0.000000e+00 
-1.088783e-11 2.543472e-11 0.000000e+00 
-1.575703e-11 1.701292e-11 0.000000e+00 
-1.943591e-11 4.941331e-12 0.000000e+00 
-2.054291e-11 -1.036335e-11 0.000000e+00 
-1.707870e-11 -2.615008e-11 0.000000e+00 
-9.323563e-12 -3.714439e-11 0.000000e+00 
4.724431e-26 -4.074265e-11 0.000000e+00 
9.323563e-12 -3.714439e-11 0.000000e+00 
1.707870e-11 -2.615008e-11 0.000000e+00 
2.054291e-11 -1.036335e-11 0.000000e+00 
1.943591e-11 4.941331e-12 0.000000e+00 
1.575703e-11 1.701292e-11 0.000000e+00 
1.088783e-11 2.543472e-11 0.000000e+00 
5.525866e-12 3.035091e-11 0.000000e+00 
0.000000e+00 3.196227e-11 0.000000e+00 
0.000000e+00 3.715903e-11 0.000000e+00 
-4.714328e-12 3.553358e-11 0.000000e+00 
-9.482445e-12 3.049367e-11 0.000000e+00 
-1.419928e-11 2.160614e-11 0.000000e+00 
-1.842915e-11 8.145751e-12 0.000000e+00 
-2.092077e-11 -1.017373e-11 0.000000e+00 
-1.789357e-11 -3.217509e-11 0.000000e+00 
-9.036808e-12 -4.596659e-11 0.000000e+00 
-7.398379e-25 -4.952564e-11 0.000000e+00 
9.036808e-12 -4.596659e-11 0.000000e+00 
1.789357e-11 -3.217509e-11 0.000000e+00 
2.092077e-11 -1.017373e-11 0.000000e+00 
1.842915e-11 8.145751e-12 0.000000e+00 
1.419928e-11 2.160614e-11 0.000000e+00 
9.482445e-12 3.049367e-11 0.000000e+00 
4.714328e-12 3.553358e-11 0.000000e+00 
0.000000e+00 3.715903e-11 0.000000e+00 
0.000000e+00 4.103846e-11 0.000000e+00 
-2.946606e-12 3.950359e-11 0.000000e+00 
-6.132397e-12 3.465132e-11 0.000000e+00 
-9.659965e-12 2.576927e-11 0.000000e+00 
-1.288858e-11 1.163351e-11 0.000000e+00 
-1.543244e-11 -9.345845e-12 0.000000e+00 
-1.056858e-11 -4.388840e-11 0.000000e+00 
-5.269230e-12 -5.533740e-11 0.000000e+00 
-2.682647e-24 -5.795335e-11 0.000000e+00 
5.269230e-12 -5.533740e-11 0.000000e+00 
1.056858e-11 -4.388840e-11 0.000000e+00 
1.543244e-11 -9.345845e-12 0.000000e+00 
1.288858e-11 1.163351e-11 0.000000e+00 
9.659965e-12 2.576927e-11 0.000000e+00 
6.132397e-12 3.465132e-11 0.000000e+00 
2.946606e-12 3.950359e-11 0.000000e+00 
0.000000e+00 4.103846e-11 0.000000e+00 
0.000000e+00 4.263148e-11 0.000000e+00 
-2.236188e-13 4.128349e-11 0.000000e+00 
-8.875891e-13 3.690003e-11 0.000000e+00 
-2.242863e-12 2.840377e-11 0.000000e+00 
-3.902851e-12 1.382100e-11 0.000000e+00 
-4.285174e-12 -1.005992e-11 0.000000e+00 
-1.240861e-12 -4.831386e-11 0.000000e+00 
-7.665405e-13 -5.624370e-11 0.000000e+00 
-2.532688e-24 -5.920354e-11 0.000000e+00 
7.665405e-13 -5.624370e-11 0.000000e+00 
1.240861e-12 -4.831386e-11 0.000000e+00 
4.285174e-12 -1.005992e-11 0.000000e+00 
3.902851e-12 1.382100e-11 0.000000e+00 
2.242863e-12 2.840377e-11 0.000000e+00 
8.875891e-13 3.690003e-11 0.000000e+00 
2.236188e-13 4.128349e-11 0.000000e+00 
0.000000e+00 4.263148e-11 0.000000e+00 
0.000000e+00 4.106854e-11 0.000000e+00 
3.259820e-12 4.000361e-11 0.000000e+00 
5.862125e-12 3.641772e-11 0.000000e+00 
7.201024e-12 2.901268e-11 0.000000e+00 
6.713996e-12 1.509501e-11 0.000000e+00 
4.884105e-12 -9.541618e-12 0.000000e+00 
1.878391e-12 -4.919730e-11 0.000000e+00 
9.521118e-13 -5.639851e-11 0.000000e+00 
-2.000460e-24 -5.984504e-11 0.000000e+00 
-9.521118e-13 -5.639851e-11 0.000000e+00 
-1.878391e-12 -4.919730e-11 0.000000e+00 
-4.884105e-12 -9.541618e-12 0.000000e+00 
-6.713996e-12 1.509501e-11 0.000000e+00 
-7.201024e-12 2.901268e-11 0.000000e+00 
-5.862125e-12 3.641772e-11 0.000000e+00 
-3.259820e-12 4.000361e-11 0.000000e+00 
0.000000e+00 4.106854e-11 0.000000e+00 
0.000000e+00 3.576490e-11 0.000000e+00 
7.142334e-12 3.504946e-11 0.000000e+00 
1.352492e-11 3.256236e-11 0.000000e+00 
1.824801e-11 2.716100e-11 0.000000e+00 
1.964018e-11 1.632516e-11 0.000000e+00 
1.626753e-11 -4.528501e-12 0.000000e+00 
5.820218e-12 -4.379181e-11 0.000000e+00 
3.371715e-12 -5.384722e-11 0.000000e+00 
-1.617247e-24 -5.709037e-11 0.000000e+00 
-3.371715e-12 -5.384722e-11 0.000000e+00 
-5.820218e-12 -4.379181e-11 0.000000e+00 
-1.626753e-11 -4.528501e-12 0.000000e+00 
-1.964018e-11 1.632516e-11 0.000000e+00 
-1.824801e-11 2.716100e-11 0.000000e+00 
-1.352492e-11 3.256236e-11 0.000000e+00 
-7.142334e-12 3.504946e-11 0.000000e+00 
0.000000e+00 3.576490e-11 0.000000e+00 
0.000000e+00 2.662292e-11 0.000000e+00 
1.083472e-11 2.623881e-11 0.000000e+00 
2.103125e-11 2.485941e-11 0.000000e+00 
2.980230e-11 2.174982e-11 0.000000e+00 
3.530132e-11 1.513363e-11 0.000000e+00 
3.670137e-11 1.609747e-12 0.000000e+00 
2.210062e-11 -3.427412e-11 0.000000e+00 
1.087489e-11 -5.077039e-11 0.000000e+00 
-1.329027e-24 -5.348926e-11 0.000000e+00 
-1.087489e-11 -5.077039e-11 0.000000e+00 
-2.210062e-11 -3.427412e-11 0.000000e+00 
-3.670137e-11 1.609747e-12 0.000000e+00 
-3.530132e-11 1.513363e-11 0.000000e+00 
-2.980230e-11 2.174982e-11 0.000000e+00 
-2.103125e-11 2.485941e-11 0.000000e+00 
-1.083472e-11 2.623881e-11 0.000000e+00 
0.000000e+00 2.662292e-11 0.000000e+00 
0.000000e+00 1.424644e-11 0.000000e+00 
1.353944e-11 1.409764e-11 0.000000e+00 
2.667652e-11 1.353980e-11 0.000000e+00 
3.879982e-11 1.221209e-11 0.000000e+00 
4.869654e-11 9.055558e-12 0.000000e+00 
5.447918e-11 1.935531e-12 0.000000e+00 
4.882087e-11 -1.357661e-11 0.000000e+00 
2.749745e-11 -2.730237e-11 0.000000e+00 
-5.961406e-25 -3.006109e-11 0.000000e+00 
-2.749745e-11 -2.730237e-11 0.000000e+00 
-4.882087e-11 -1.357661e-11 0.000000e+00 
-5.447918e-11 1.935531e-12 0.000000e+00 
-4.869654e-11 9.055558e-12 0.000000e+00 
-3.879982e-11 1.221209e-11 0.000000e+00 
-2.667652e-11 1.353980e-11 0.000000e+00 
-1.353944e-11 1.409764e-11 0.000000e+00 
0.000000e+00 1.424644e-11 0.000000e+00 
0.000000e+00 0.000000e+00 0.000000e+00 
1.453832e-11 0.000000e+00 0.000000e+00 
2.877898e-11 0.000000e+00 0.000000e+00 
4.219184e-11 0.000000e+00 0.000000e+00 
5.351097e-11 0.000000e+00 0.000000e+00 
5.948805e-11 0.000000e+00 0.000000e+00 
5.320863e-11 0.000000e+00 0.000000e+00 
3.103526e-11 0.000000e+00 0.000000e+00 
-2.875869e-25 0.000000e+00 0.000000e+00 
-3.103526e-11 0.000000e+00 0.000000e+00 
-5.320863e-11 0.000000e+00 0.000000e+00 
-5.948805e-11 0.000000e+00 0.000000e+00 
-5.351097e-11 0.000000e+00 0.000000e+00 
-4.219184e-11 0.000000e+00 0.000000e+00 
-2.877898e-11 0.000000e+00 0.000000e+00 
-1.453832e-11 0.000000e+00 0.000000e+00 
0.000000e+00 0.000000e+00 0.000000e+00 
-1.221226e-12 0.000000e+00 0.000000e+00 
-3.485796e-12 0.000000e+00 0.000000e+00 
-5.239140e-12 0.000000e+00 0.000000e+00 
-6.214415e-12 0.000000e+00 0.000000e+00 
-6.251784e-12 0.000000e+00 0.000000e+00 
-5.329342e-12 0.000000e+00 0.000000e+00 
-3.575977e-12 0.000000e+00 0.000000e+00 
-1.258574e-12 0.000000e+00 0.000000e+00 
1.258574e-12 0.000000e+00 0.000000e+00 
3.575977e-12 0.000000e+00 0.000000e+00 
5.329342e-12 0.000000e+00 0.000000e+00 
6.251784e-12 0.000000e+00 0.000000e+00 
6.214415e-12 0.000000e+00 0.000000e+00 
5.239140e-12 0.000000e+00 0.000000e+00 
3.485796e-12 0.000000e+00 0.000000e+00 
1.221226e-12 0.000000e+00 0.000000e+00 
0.000000e+00 1.232685e-12 0.000000e+00 
-2.420586e-12 1.143058e-12 0.000000e+00 
-4.488408e-12 8.853840e-13 0.000000e+00 
-5.895266e-12 4.929686e-13 0.000000e+00 
-6.420540e-12 1.956025e-14 0.000000e+00 
-5.968448e-12 -4.653159e-13 0.000000e+00 
-4.591875e-12 -8.853989e-13 0.000000e+00 
-2.493729e-12 -1.170713e-12 0.000000e+00 
1.033976e-24 -1.271781e-12 0.000000e+00 
2.493729e-12 -1.170713e-12 0.000000e+00 
4.591875e-12 -8.853989e-13 0.000000e+00 
5.968448e-12 -4.653159e-13 0.000000e+00 
6.420540e-12 1.956025e-14 0.000000e+00 
5.895266e-12 4.929686e-13 0.000000e+00 
4.488408e-12 8.853840e-13 0.000000e+00 
2.420586e-12 1.143058e-12 0.000000e+00 
0.000000e+00 1.232685e-12 0.000000e+00 
-1.267606e-12 2.443258e-12 0.000000e+00 
-3.619790e-12 2.087764e-12 0.000000e+00 
-5.445004e-12 1.421346e-12 0.000000e+00 
-6.465530e-12 5.318107e-13 0.000000e+00 
-6.511934e-12 -4.552316e-13 0.000000e+00 
-5.556997e-12 -1.389653e-12 0.000000e+00 
-3.731737e-12 -2.119490e-12 0.000000e+00 
-1.313962e-12 -2.519784e-12 0.000000e+00 
1.313962e-12 -2.519784e-12 0.000000e+00 
3.731737e-12 -2.119490e-12 0.000000e+00 
5.556997e-12 -1.389653e-12 0.000000e+00 
6.511934e-12 -4.552316e-13 0.000000e+00 
6.465530e-12 5.318107e-13 0.000000e+00 
5.445004e-12 1.421346e-12 0.000000e+00 
3.619790e-12 2.087764e-12 0.000000e+00 
1.267606e-12 2.443258e-12 0.000000e+00 
0.000000e+00 3.791157e-12 0.000000e+00 
-2.603081e-12 3.517185e-12 0.000000e+00 
-4.833070e-12 2.728535e-12 0.000000e+00 
-6.360298e-12 1.524717e-12 0.000000e+00 
-6.942846e-12 6.811998e-14 0.000000e+00 
-6.468635e-12 -1.428429e-12 0.000000e+00 
-4.986189e-12 -2.728598e-12 0.000000e+00 
-2.711287e-12 -3.613467e-12 0.000000e+00 
1.300686e-24 -3.927254e-12 0.000000e+00 
2.711287e-12 -3.613467e-12 0.000000e+00 
4.986189e-12 -2.728598e-12 0.000000e+00 
6.468635e-12 -1.428429e-12 0.000000e+00 
6.942846e-12 6.811998e-14 0.000000e+00 
6.360298e-12 1.524717e-12 0.000000e+00 
4.833070e-12 2.728535e-12 0.000000e+00 
2.603081e-12 3.517185e-12 0.000000e+00 
0.000000e+00 3.791157e-12 0.000000e+00 
-1.405632e-12 5.069678e-12 0.000000e+00 
-4.019370e-12 4.338577e-12 0.000000e+00 
-6.061198e-12 2.964173e-12 0.000000e+00 
-7.220719e-12 1.121955e-12 0.000000e+00 
-7.298102e-12 -9.320756e-13 0.000000e+00 
-6.247891e-12 -2.885686e-12 0.000000e+00 
-4.205874e-12 -4.417320e-12 0.000000e+00 
-1.482830e-12 -5.259382e-12 0.000000e+00 
1.482830e-12 -5.259382e-12 0.000000e+00 
4.205874e-12 -4.417320e-12 0.000000e+00 
6.247891e-12 -2.885686e-12 0.000000e+00 
7.298102e-12 -9.320756e-13 0.000000e+00 
7.220719e-12 1.121955e-12 0.000000e+00 
6.061198e-12 2.964173e-12 0.000000e+00 
4.019370e-12 4.338577e-12 0.000000e+00 
1.405632e-12 5.069678e-12 0.000000e+00 
0.000000e+00 6.626491e-12 0.000000e+00 
-2.963364e-12 6.153884e-12 0.000000e+00 
-5.516674e-12 4.789778e-12 0.000000e+00 
-7.288918e-12 2.697220e-12 0.000000e+00 
-7.993871e-12 1.490486e-13 0.000000e+00 
-7.482479e-12 -2.486652e-12 0.000000e+00 
-5.790012e-12 -4.790107e-12 0.000000e+00 
-3.156359e-12 -6.364471e-12 0.000000e+00 
1.279545e-24 -6.923993e-12 0.000000e+00 
3.156359e-12 -6.364471e-12 0.000000e+00 
5.790012e-12 -4.790107e-12 0.000000e+00 
7.482479e-12 -2.486652e-12 0.000000e+00 
7.993871e-12 1.490486e-13 0.000000e+00 
7.288918e-12 2.697220e-12 0.000000e+00 
5.516674e-12 4.789778e-12 0.000000e+00 
2.963364e-12 6.153884e-12 0.000000e+00 
0.000000e+00 6.626491e-12 0.000000e+00 
-1.630426e-12 8.057293e-12 0.000000e+00 
-4.673135e-12 6.914214e-12 0.000000e+00 
-7.077798e-12 4.754252e-12 0.000000e+00 
-8.479787e-12 1.836879e-12 0.000000e+00 
-8.623002e-12 -1.444749e-12 0.000000e+00 
-7.422977e-12 -4.592375e-12 0.000000e+00 
-5.017523e-12 -7.076779e-12 0.000000e+00 
-1.772839e-12 -8.448433e-12 0.000000e+00 
1.772839e-12 -8.448433e-12 0.000000e+00 
5.017523e-12 -7.076779e-12 0.000000e+00 
7.422977e-12 -4.592375e-12 0.000000e+00 
8.623002e-12 -1.444749e-12 0.000000e+00 
8.479787e-12 1.836879e-12 0.000000e+00 
7.077798e-12 4.754252e-12 0.000000e+00 
4.673135e-12 6.914214e-12 0.000000e+00 
1.630426e-12 8.057293e-12 0.000000e+00 
0.000000e+00 9.912000e-12 0.000000e+00 
-3.485967e-12 9.220624e-12 0.000000e+00 
-6.517218e-12 7.216069e-12 0.000000e+00 
-8.665999e-12 4.115361e-12 0.000000e+00 
-9.575597e-12 2.986742e-13 0.000000e+00 
-9.029167e-12 -3.693847e-12 0.000000e+00 
-7.029199e-12 -7.217236e-12 0.000000e+00 
-3.846845e-12 -9.642082e-12 0.000000e+00 
1.464090e-24 -1.050679e-11 0.000000e+00 
3.846845e-12 -9.642082e-12 0.000000e+00 
7.029199e-12 -7.217236e-12 0.000000e+00 
9.029167e-12 -3.693847e-12 0.000000e+00 
9.575597e-12 2.986742e-13 0.000000e+00 
8.665999e-12 4.115361e-12 0.000000e+00 
6.517218e-12 7.216069e-12 0.000000e+00 
3.485967e-12 9.220624e-12 0.000000e+00 
0.000000e+00 9.912000e-12 0.000000e+00 
-1.928529e-12 1.156772e-11 0.000000e+00 
-5.547332e-12 9.969285e-12 0.000000e+00 
-8.457779e-12 6.924183e-12 0.000000e+00 
-1.022155e-11 2.760743e-12 0.000000e+00 
-1.049123e-11 -1.989422e-12 0.000000e+00 
-9.106623e-12 -6.607508e-12 0.000000e+00 
-6.192971e-12 -1.029029e-11 0.000000e+00 
-2.195007e-12 -1.233583e-11 0.000000e+00 
2.195007e-12 -1.233583e-11 0.000000e+00 
6.192971e-12 -1.029029e-11 0.000000e+00 
9.106623e-12 -6.607508e-12 0.000000e+00 
1.049123e-11 -1.989422e-12 0.000000e+00 
1.022155e-11 2.760743e-12 0.000000e+00 
8.457779e-12 6.924183e-12 0.000000e+00 
5.547332e-12 9.969285e-12 0.000000e+00 
1.928529e-12 1.156772e-11 0.000000e+00 
0.000000e+00 1.379278e-11 0.000000e+00 
-4.131760e-12 1.286345e-11 0.000000e+00 
-7.773279e-12 1.015053e-11 0.000000e+00 
-1.043492e-11 5.900230e-12 0.000000e+00 
-1.166018e-11 5.803326e-13 0.000000e+00 
-1.111578e-11 -5.083213e-12 0.000000e+00 
-8.729538e-12 -1.015614e-11 0.000000e+00 
-4.803127e-12 -1.368063e-11 0.000000e+00 
1.986336e-24 -1.494301e-11 0.000000e+00 
4.803127e-12 -1.368063e-11 0.000000e+00 
8.729538e-12 -1.015614e-11 0.000000e+00 
1.111578e-11 -5.083213e-12 0.000000e+00 
1.166018e-11 5.803326e-13 0.000000e+00 
1.043492e-11 5.900230e-12 0.000000e+00 
7.773279e-12 1.015053e-11 0.000000e+00 
4.131760e-12 1.286345e-11 0.000000e+00 
0.000000e+00 1.379278e-11 0.000000e+00 
-2.269462e-12 1.572186e-11 0.000000e+00 
-6.561751e-12 1.363488e-11 0.000000e+00 
-1.010181e-11 9.611053e-12 0.000000e+00 
-1.236612e-11 4.007394e-12 0.000000e+00 
-1.286820e-11 -2.525991e-12 0.000000e+00 
-1.130480e-11 -9.007031e-12 0.000000e+00 
-7.751220e-12 -1.425140e-11 0.000000e+00 
-2.758203e-12 -1.718670e-11 0.000000e+00 
2.758203e-12 -1.718670e-11 0.000000e+00 
7.751220e-12 -1.425140e-11 0.000000e+00 
1.130480e-11 -9.007031e-12 0.000000e+00 
1.286820e-11 -2.525991e-12 0.000000e+00 
1.236612e-11 4.007394e-12 0.000000e+00 
1.010181e-11 9.611053e-12 0.000000e+00 
6.561751e-12 1.363488e-11 0.000000e+00 
2.269462e-12 1.572186e-11 0.000000e+00 
0.000000e+00 1.835102e-11 0.000000e+00 
-4.817836e-12 1.717682e-11 0.000000e+00 
-9.145712e-12 1.371586e-11 0.000000e+00 
-1.244806e-11 8.192380e-12 0.000000e+00 
-1.414182e-11 1.103875e-12 0.000000e+00 
-1.369817e-11 -6.645677e-12 0.000000e+00 
-1.088762e-11 -1.373599e-11 0.000000e+00 
-6.030362e-12 -1.872302e-11 0.000000e+00 
1.770683e-24 -2.051596e-11 0.000000e+00 
6.030362e-12 -1.872302e-11 0.000000e+00 
1.088762e-11 -1.373599e-11 0.000000e+00 
1.369817e-11 -6.645677e-12 0.000000e+00 
1.414182e-11 1.103875e-12 0.000000e+00 
1.244806e-11 8.192380e-12 0.000000e+00 
9.145712e-12 1.371586e-11 0.000000e+00 
4.817836e-12 1.717682e-11 0.000000e+00 
0.000000e+00 1.835102e-11 0.000000e+00 