<VTKFile type='UnstructuredGrid' version='0.1' byte_order='BigEndian'> 
<UnstructuredGrid> 
<Piece NumberOfPoints='  2171 ' NumberOfCells='  2004 '> 
<Points> 
<DataArray type='Float32' NumberOfComponents='3' Format='ascii'> 
  1.220000   0.000000   0.000000 
  1.219137   0.045890   0.000000 
  1.216548   0.091716   0.000000 
  1.212237   0.137411   0.000000 
  1.206210   0.182912   0.000000 
  1.198476   0.228154   0.000000 
  1.189046   0.273074   0.000000 
  1.177933   0.317606   0.000000 
  1.165153   0.361689   0.000000 
  1.150723   0.405261   0.000000 
  1.134665   0.448258   0.000000 
  1.117001   0.490621   0.000000 
  1.097755   0.532290   0.000000 
  1.076957   0.573206   0.000000 
  1.054633   0.613310   0.000000 
  1.030817   0.652546   0.000000 
  1.005542   0.690858   0.000000 
  0.978844   0.728193   0.000000 
  0.950760   0.764496   0.000000 
  0.921331   0.799718   0.000000 
  0.890598   0.833808   0.000000 
  0.858604   0.866718   0.000000 
  0.825394   0.898401   0.000000 
  0.791017   0.928812   0.000000 
  0.755520   0.957909   0.000000 
  0.718953   0.985650   0.000000 
  0.681369   1.011996   0.000000 
  0.642821   1.036909   0.000000 
  0.603363   1.060355   0.000000 
  0.563051   1.082300   0.000000 
  0.521941   1.102714   0.000000 
  0.480093   1.121566   0.000000 
  0.437566   1.138831   0.000000 
  0.394419   1.154484   0.000000 
  0.350714   1.168503   0.000000 
  0.306513   1.180868   0.000000 
  0.261877   1.191562   0.000000 
  0.216872   1.200569   0.000000 
  0.171559   1.207877   0.000000 
  0.126003   1.213476   0.000000 
  0.080269   1.217357   0.000000 
  0.034421   1.219514   0.000000 
 -0.011475   1.219946   0.000000 
 -0.057355   1.218651   0.000000 
 -0.103154   1.215631   0.000000 
 -0.148807   1.210891   0.000000 
 -0.194249   1.204436   0.000000 
 -0.239417   1.196277   0.000000 
 -0.284245   1.186425   0.000000 
 -0.328672   1.174894   0.000000 
 -0.372633   1.161699   0.000000 
 -0.416066   1.146860   0.000000 
 -0.458911   1.130399   0.000000 
 -0.501106   1.112337   0.000000 
 -0.542592   1.092700   0.000000 
 -0.583310   1.071517   0.000000 
 -0.623202   1.048818   0.000000 
 -0.662212   1.024634   0.000000 
 -0.700285   0.999000   0.000000 
 -0.737367   0.971951   0.000000 
 -0.773405   0.943528   0.000000 
 -0.808349   0.913768   0.000000 
 -0.842148   0.882716   0.000000 
 -0.874755   0.850413   0.000000 
 -0.906125   0.816908   0.000000 
 -0.936211   0.782246   0.000000 
 -0.964973   0.746477   0.000000 
 -0.992369   0.709651   0.000000 
 -1.018360   0.671821   0.000000 
 -1.042910   0.633040   0.000000 
 -1.065984   0.593363   0.000000 
 -1.087548   0.552846   0.000000 
 -1.107574   0.511546   0.000000 
 -1.126032   0.469523   0.000000 
 -1.142896   0.426835   0.000000 
 -1.158143   0.383543   0.000000 
 -1.171750   0.339708   0.000000 
 -1.183699   0.295392   0.000000 
 -1.193973   0.250658   0.000000 
 -1.202556   0.205570   0.000000 
 -1.209438   0.160190   0.000000 
 -1.214607   0.114584   0.000000 
 -1.218058   0.068815   0.000000 
 -1.219784   0.022949   0.000000 
 -1.219784  -0.022949   0.000000 
 -1.218058  -0.068815   0.000000 
 -1.214607  -0.114584   0.000000 
 -1.209438  -0.160190   0.000000 
 -1.202556  -0.205570   0.000000 
 -1.193973  -0.250658   0.000000 
 -1.183699  -0.295392   0.000000 
 -1.171750  -0.339708   0.000000 
 -1.158143  -0.383543   0.000000 
 -1.142896  -0.426835   0.000000 
 -1.126032  -0.469523   0.000000 
 -1.107574  -0.511546   0.000000 
 -1.087548  -0.552846   0.000000 
 -1.065984  -0.593363   0.000000 
 -1.042910  -0.633040   0.000000 
 -1.018360  -0.671821   0.000000 
 -0.992369  -0.709651   0.000000 
 -0.964973  -0.746477   0.000000 
 -0.936211  -0.782246   0.000000 
 -0.906125  -0.816908   0.000000 
 -0.874755  -0.850413   0.000000 
 -0.842148  -0.882716   0.000000 
 -0.808349  -0.913768   0.000000 
 -0.773405  -0.943528   0.000000 
 -0.737367  -0.971951   0.000000 
 -0.700285  -0.999000   0.000000 
 -0.662212  -1.024634   0.000000 
 -0.623202  -1.048818   0.000000 
 -0.583310  -1.071517   0.000000 
 -0.542592  -1.092700   0.000000 
 -0.501106  -1.112337   0.000000 
 -0.458911  -1.130399   0.000000 
 -0.416066  -1.146860   0.000000 
 -0.372633  -1.161699   0.000000 
 -0.328672  -1.174894   0.000000 
 -0.284245  -1.186425   0.000000 
 -0.239417  -1.196277   0.000000 
 -0.194249  -1.204436   0.000000 
 -0.148807  -1.210891   0.000000 
 -0.103154  -1.215631   0.000000 
 -0.057355  -1.218651   0.000000 
 -0.011475  -1.219946   0.000000 
  0.034421  -1.219514   0.000000 
  0.080269  -1.217357   0.000000 
  0.126003  -1.213476   0.000000 
  0.171559  -1.207877   0.000000 
  0.216872  -1.200569   0.000000 
  0.261877  -1.191562   0.000000 
  0.306513  -1.180868   0.000000 
  0.350714  -1.168503   0.000000 
  0.394419  -1.154484   0.000000 
  0.437566  -1.138831   0.000000 
  0.480093  -1.121566   0.000000 
  0.521941  -1.102714   0.000000 
  0.563051  -1.082300   0.000000 
  0.603363  -1.060355   0.000000 
  0.642821  -1.036909   0.000000 
  0.681369  -1.011996   0.000000 
  0.718953  -0.985650   0.000000 
  0.755520  -0.957909   0.000000 
  0.791017  -0.928812   0.000000 
  0.825394  -0.898401   0.000000 
  0.858604  -0.866718   0.000000 
  0.890598  -0.833808   0.000000 
  0.921331  -0.799718   0.000000 
  0.950760  -0.764496   0.000000 
  0.978844  -0.728193   0.000000 
  1.005542  -0.690858   0.000000 
  1.030817  -0.652546   0.000000 
  1.054633  -0.613310   0.000000 
  1.076957  -0.573206   0.000000 
  1.097755  -0.532290   0.000000 
  1.117001  -0.490621   0.000000 
  1.134665  -0.448258   0.000000 
  1.150723  -0.405261   0.000000 
  1.165153  -0.361689   0.000000 
  1.177933  -0.317606   0.000000 
  1.189046  -0.273074   0.000000 
  1.198476  -0.228154   0.000000 
  1.206210  -0.182912   0.000000 
  1.212237  -0.137411   0.000000 
  1.216548  -0.091716   0.000000 
  1.219137  -0.045890   0.000000 
  1.303333   0.000000   0.000000 
  1.302411   0.049025   0.000000 
  1.299645   0.097980   0.000000 
  1.295040   0.146797   0.000000 
  1.288602   0.195406   0.000000 
  1.280340   0.243739   0.000000 
  1.270265   0.291726   0.000000 
  1.258393   0.339301   0.000000 
  1.244740   0.386395   0.000000 
  1.229324   0.432942   0.000000 
  1.212169   0.478877   0.000000 
  1.193299   0.524134   0.000000 
  1.172739   0.568649   0.000000 
  1.150519   0.612359   0.000000 
  1.126671   0.655202   0.000000 
  1.101228   0.697118   0.000000 
  1.074227   0.738048   0.000000 
  1.045705   0.777932   0.000000 
  1.015703   0.816716   0.000000 
  0.984263   0.854344   0.000000 
  0.951431   0.890762   0.000000 
  0.917251   0.925920   0.000000 
  0.881774   0.959767   0.000000 
  0.845048   0.992256   0.000000 
  0.807126   1.023340   0.000000 
  0.768062   1.052976   0.000000 
  0.727911   1.081121   0.000000 
  0.686730   1.107737   0.000000 
  0.644576   1.132784   0.000000 
  0.601510   1.156228   0.000000 
  0.557593   1.178036   0.000000 
  0.512887   1.198176   0.000000 
  0.467454   1.216620   0.000000 
  0.421360   1.233342   0.000000 
  0.374670   1.248319   0.000000 
  0.327449   1.261529   0.000000 
  0.279765   1.272953   0.000000 
  0.231685   1.282575   0.000000 
  0.183277   1.290383   0.000000 
  0.134610   1.296363   0.000000 
  0.085752   1.300509   0.000000 
  0.036772   1.302814   0.000000 
 -0.012259   1.303276   0.000000 
 -0.061273   1.301892   0.000000 
 -0.110200   1.298666   0.000000 
 -0.158972   1.293602   0.000000 
 -0.207518   1.286707   0.000000 
 -0.255770   1.277990   0.000000 
 -0.303661   1.267465   0.000000 
 -0.351122   1.255146   0.000000 
 -0.398086   1.241050   0.000000 
 -0.444486   1.225198   0.000000 
 -0.490257   1.207612   0.000000 
 -0.535335   1.188316   0.000000 
 -0.579654   1.167338   0.000000 
 -0.623153   1.144709   0.000000 
 -0.665771   1.120458   0.000000 
 -0.707446   1.094623   0.000000 
 -0.748119   1.067237   0.000000 
 -0.787734   1.038342   0.000000 
 -0.826233   1.007976   0.000000 
 -0.863564   0.976184   0.000000 
 -0.899672   0.943010   0.000000 
 -0.934506   0.908502   0.000000 
 -0.968018   0.872707   0.000000 
 -1.000160   0.835678   0.000000 
 -1.030886   0.797465   0.000000 
 -1.060153   0.758124   0.000000 
 -1.087920   0.717710   0.000000 
 -1.114147   0.676280   0.000000 
 -1.138797   0.633893   0.000000 
 -1.161835   0.590608   0.000000 
 -1.183228   0.546488   0.000000 
 -1.202947   0.501594   0.000000 
 -1.220963   0.455990   0.000000 
 -1.237251   0.409741   0.000000 
 -1.251788   0.362912   0.000000 
 -1.264553   0.315569   0.000000 
 -1.275528   0.267780   0.000000 
 -1.284698   0.219611   0.000000 
 -1.292049   0.171132   0.000000 
 -1.297572   0.122410   0.000000 
 -1.301258   0.073516   0.000000 
 -1.303103   0.024517   0.000000 
 -1.303103  -0.024517   0.000000 
 -1.301258  -0.073516   0.000000 
 -1.297572  -0.122410   0.000000 
 -1.292049  -0.171132   0.000000 
 -1.284698  -0.219611   0.000000 
 -1.275528  -0.267780   0.000000 
 -1.264553  -0.315569   0.000000 
 -1.251788  -0.362912   0.000000 
 -1.237251  -0.409741   0.000000 
 -1.220963  -0.455990   0.000000 
 -1.202947  -0.501594   0.000000 
 -1.183228  -0.546488   0.000000 
 -1.161835  -0.590608   0.000000 
 -1.138797  -0.633893   0.000000 
 -1.114147  -0.676280   0.000000 
 -1.087920  -0.717710   0.000000 
 -1.060153  -0.758124   0.000000 
 -1.030886  -0.797465   0.000000 
 -1.000160  -0.835678   0.000000 
 -0.968018  -0.872707   0.000000 
 -0.934506  -0.908502   0.000000 
 -0.899672  -0.943010   0.000000 
 -0.863564  -0.976184   0.000000 
 -0.826233  -1.007976   0.000000 
 -0.787734  -1.038342   0.000000 
 -0.748119  -1.067237   0.000000 
 -0.707446  -1.094623   0.000000 
 -0.665771  -1.120458   0.000000 
 -0.623153  -1.144709   0.000000 
 -0.579654  -1.167338   0.000000 
 -0.535335  -1.188316   0.000000 
 -0.490257  -1.207612   0.000000 
 -0.444486  -1.225198   0.000000 
 -0.398086  -1.241050   0.000000 
 -0.351122  -1.255146   0.000000 
 -0.303661  -1.267465   0.000000 
[...]
<CellData Scalars='scalars'>
<DataArray type='Float32' Name='p' Format='ascii'> 
-42.486863
-42.460624
-42.387273
-42.310137
-42.246097
-42.197826
-42.159650
-42.127806
-42.098225
-42.069041
-42.038243
-42.005723
-41.971657
-41.935812
-41.898318
-41.859266
-41.819135
-41.776684
-41.731619
-41.682358
-41.625503
-41.556541
-41.467865
-41.345015
-41.159660
-40.855662
-40.365541
-39.833276
-39.817269
-40.338864
-40.836403
-41.147200
-41.336261
-41.461010
-41.551243
-41.620837
-41.678015
-41.727893
-41.773211
-41.815835
-41.856106
-41.895032
-41.932656
-41.968653
-42.002964
-42.035711
-42.066466
-42.095991
-42.125498
-42.157404
-42.195529
-42.243869
-42.308278
-42.385614
-42.458214
-42.484726
-42.484680
-42.458623
-42.385420
-42.307693
-42.243028
-42.194506
-42.155784
-42.123827
-42.093529
-42.064028
-42.032821
-41.999874
-41.966018
-41.928593
-41.890712
-41.851479
-41.810370
-41.767419
-41.721512
-41.669921
-41.609314
-41.533275
-41.432168
-41.286796
-41.059320
-40.684154
-40.147370
-39.828319
-40.145051
-40.682221
-41.058365
-41.286498
-41.431866
-41.533531
-41.609405
-41.669989
-41.721535
-41.767822
-41.810580
-41.851689
-41.890996
-41.928917
-41.964876
-41.999556
-42.032480
-42.063743
-42.093484
-42.123486
-42.155330
-42.193892
-42.242664
-42.307306
-42.384750
-42.457987
-42.484180
-42.484407
-42.457850
-42.385204
-42.308147
-42.243823
-42.195074
-42.156819
-42.125203
-42.095724
-42.066148
-42.035236
-42.002767
-41.968420
-41.932475
-41.894897
-41.855759
-41.815383
-41.772799
-41.727588
-41.677902
-41.620473
-41.550811
-41.460589
-41.335568
-41.146268
-40.834652
-40.335817
-39.815268
-39.834185
-40.367298
-40.856514
-41.159819
-41.344776
-41.467320
-41.556052
-41.624696
-41.681494
-41.730971
-41.776059
-41.818214
-41.858698
-41.897533
-41.934936
-41.970861
-42.005172
-42.037561
-42.068393
-42.098009
-42.127499
-42.159286
-42.197212
-42.246029
-42.310398
-42.387478
-42.460579
-42.486499
-34.679033
-34.775371
-34.802019
-34.800198
-34.785973
-34.765674
-34.740799
-34.715970
-34.693403
-34.674815
-34.660218
-34.648974
-34.640527
-34.633774
-34.628249
-34.624554
-34.621928
-34.621814
-34.624327
-34.633581
-34.650770
-34.681153
-34.715009
-34.742288
-34.729783
-34.648406
-34.393452
-34.144284
-34.141954
-34.378695
-34.642233
-34.728328
-34.742504
-34.716015
-34.682165
-34.651379
-34.633516
-34.624270
-34.621564
-34.621627
-34.624128
-34.627883
-34.633284
-34.640064
-34.648764
-34.660005
-34.674480
-34.693278
-34.716010
-34.740714
-34.765702
-34.785819
-34.800183
-34.801883
-34.774951
-34.678374
-34.678442
-34.775462
-34.802667
-34.801042
-34.786990
-34.767163
-34.742357
-34.717959
-34.695597
-34.677169
-34.662924
-34.651589
-34.643938
-34.636003
-34.631023
-34.627169
-34.625270
-34.625486
-34.630114
-34.641187
-34.663913
-34.696950
-34.734592
-34.752202
-34.720813
-34.571724
-34.238997
-34.137645
-34.237763
-34.570326
-34.720642
-34.752190
-34.735100
-34.697217
-34.664407
-34.641295
-34.630477
-34.625788
-34.625600
-34.627465
-34.631211
-34.636190
-34.642881
-34.651191
-34.662298
-34.676555
-34.695006
-34.717277
-34.741788
-34.766572
-34.786422
-34.800507
-34.802230
-34.774757
-34.677851
-34.678374
-34.774689
-34.801707
-34.799609
-34.785444
-34.765253
-34.740071
-34.715595
-34.692789
-34.674110
-34.659701
-34.648392
-34.639758
-34.633027
-34.627570
-34.623807
-34.621259
-34.621246
-34.623903
-34.633342
-34.651111
-34.682057
-34.716044
-34.742425
-34.727725
-34.641505
-34.376615
-34.141854
-34.144006
-34.394490
-34.648235
-34.729260
-34.741777
-34.714139
-34.680437
-34.649906
-34.632831
-34.623554
-34.621064
-34.621132
-34.623770
-34.627578
-34.633001
-34.639845
-34.648781
-34.659797
-34.674576
-34.693107
-34.716061
-34.740697
-34.765617
-34.785876
-34.800115
-34.802213
-34.774803
-34.678715
-27.261132
-27.303281
-27.325234
-27.331157
-27.340036
-27.354241
-27.375063
-27.391161
-27.402109
-27.408305
-27.414308
-27.420447
-27.427916
-27.436010
-27.445435
-27.454587
-27.464864
-27.474402
-27.485646
-27.495958
-27.507565
-27.508702
-27.493672
-27.444690
-27.379718
-27.322085
-27.398602
-27.847636
-27.863206
-27.411375
-27.322972
-27.379082
-27.444491
-27.494417
-27.510646
-27.509708
-27.498339
-27.487852
-27.476747
-27.467009
-27.456950
-27.447561
-27.438213
-27.430121
-27.422632
-27.416445
-27.410562
-27.403752
-27.393776
-27.377087
-27.356248
-27.341639
-27.333643
-27.326939
-27.305009
-27.262740
-27.263150
-27.305623
-27.327610
-27.333638
-27.342446
-27.356828
-27.378132
-27.394822
-27.406156
-27.413023
-27.419185
-27.426108
-27.433805
-27.442240
-27.451097
-27.460965
-27.470617
-27.481343
-27.491672
-27.504137
-27.512164
-27.511018
-27.481946
-27.425745
-27.355986
-27.328696
-27.577215
-27.881555
-27.579398
-27.328826
-27.355395
-27.425267
-27.481397
-27.510686
-27.511919
-27.503984
-27.491654
-27.481167
-27.470503
-27.460766
-27.450596
-27.441422
-27.432770
-27.425222
-27.418685
-27.412386
-27.405554
-27.394140
-27.377587
-27.356418
-27.342014
-27.333175
-27.327155
-27.305168
-27.263059
-27.262740
-27.304804
-27.326541
-27.332808
-27.341662
-27.355884
-27.376745
-27.392980
-27.403723
-27.410113
-27.416064
-27.422254
-27.429800
-27.437862
-27.447184
-27.456501
-27.466675
-27.476423
-27.487576
-27.498112
-27.509202
-27.510123
-27.493860
-27.443650
-27.378348
-27.322346
-27.412523
-27.864687
-27.845931
-27.396959
-27.321860
-27.379537
-27.444490
-27.493468
-27.508372
-27.507053
-27.495526
-27.485146
-27.473993
-27.464375
-27.454246
-27.444935
-27.435658
-27.427700
-27.420253
-27.414126
-27.408146
-27.401995
-27.390956
-27.374836
-27.353991
-27.339979
-27.331038
-27.325052
-27.303247
-27.261103
-19.849102
-19.852877
-19.852999
-19.868128
-19.887079
-19.906724
-19.925841
-19.949283
-19.972339
-19.992223
-20.007030
-20.019326
-20.029472
-20.038993
-20.046753
-20.054011
-20.058894
-20.062919
-20.062907
-20.060884
-20.051596
-20.040932
-20.028631
-20.037703
-20.065545
-20.146888
-20.547861
-22.315749
-22.395068
-20.588485
-20.155659
-20.071604
-20.042285
-20.032769
-20.044376
-20.055370
-20.064681
-20.066869
-20.066969
-20.063058
-20.058229
-20.050929
-20.043148
-20.033673
-20.023461
-20.011186
-19.996389
-19.976488
-19.953359
-19.929882
-19.910800
-19.890985
-19.871925
-19.856634
-19.856589
-19.852814
-19.853951
-19.857362
-19.857225
-19.872380
-19.891593
-19.911420
-19.930474
-19.953791
-19.976846
-19.996673
-20.011771
-20.023879
-20.034554
-20.043552
-20.052005
-20.058383
-20.063868
-20.066301
-20.066790
-20.061327
-20.052741
-20.038024
-20.034099
-20.047264
-20.094058
-20.228947
-21.190328
-22.795655
-21.198935
-20.229947
-20.094183
-20.047059
-20.033656
-20.037471
-20.052190
-20.060861
-20.066244
-20.065772
-20.063248
-20.057877
-20.051289
-20.043183
-20.033855
-20.023538
-20.011259
-19.996344
-19.976505
-19.953461
-19.929996
-19.910931
-19.891081
-19.871965
-19.856725
-19.857225
-19.852996
-19.852632
-19.856088
-19.856475
-19.871533
-19.890649
-19.910402
-19.929519
-19.952893
-19.976113
-19.995997
-20.010890
-20.023072
-20.033309
-20.042798
-20.050626
-20.057834
-20.062750
-20.066597
-20.066608
-20.064346
-20.055234
-20.044070
-20.032280
-20.042177
-20.071178
-20.156057
-20.592610
-22.403992
-22.306966
-20.544132
-20.146206
-20.065215
-20.037530
-20.028534
-20.040807
-20.051505
-20.060804
-20.062816
-20.062816
-20.058837
-20.053949
-20.046684
-20.038885
-20.029341
-20.019218
-20.006883
-19.992160
-19.972151
-19.949238
-19.925699
-19.906628
-19.886971
-19.867926
-19.852700
-19.852558
-19.848659
-12.416297
-12.402177
-12.400045
-12.412426
-12.433622
-12.454962
-12.473254
-12.485012
-12.494546
-12.502633
-12.510691
-12.517125
-12.522810
-12.526448
-12.529341
-12.530023
-12.530472
-12.528699
-12.527494
-12.523969
-12.523969
-12.526459
-12.547156
-12.592355
-12.718948
-13.004757
-13.873444
-15.903316
-15.978299
-13.934789
-13.027034
-12.730777
-12.600867
-12.553892
-12.532860
-12.529858
-12.529847
-12.533235
-12.534611
-12.536319
-12.535990
-12.535206
-12.532458
-12.528765
-12.523174
-12.516682
-12.508605
-12.500502
-12.490972
-12.479177
-12.460868
-12.439462
-12.418275
-12.405712
-12.407691
-12.422242
-12.422538
-12.408714
-12.406372
-12.418741
-12.439705
-12.460862
-12.478995
-12.490727
-12.500044
-12.508110
-12.515795
-12.522361
-12.527465
-12.531387
-12.533434
-12.534690
-12.533957
-12.532939
-12.529961
-12.528079
-12.526208
-12.535139
-12.558104
-12.626128
-12.790019
-13.240151
-14.665648
-16.212175
-14.675379
-13.243425
-12.790656
-12.626202
-12.557746
-12.534662
-12.525550
-12.527516
-12.529352
-12.532377
-12.533457
-12.534122
-12.533087
-12.530893
-12.527187
-12.521929
-12.515568
-12.507667
-12.499675
-12.490273
-12.478660
-12.460379
-12.439358
-12.418229
-12.406076
-12.408373
-12.422356
-12.421788
-12.407281
-12.405326
-12.417934
-12.439182
-12.460515
-12.478904
-12.490653
-12.500215
-12.508264
-12.516347
-12.522838
-12.528416
-12.532119
-12.534866
-12.535688
-12.535995
-12.534213
-12.532951
-12.529534
-12.529426
-12.532587
-12.553619
-12.600719
-12.731311
-13.028887
-13.941951
-15.987314
-15.895381
-13.867435
-13.003165
-12.718419
-12.592145
-12.547108
-12.526527
-12.524129
-12.524083
-12.527630
-12.528824
-12.530558
-12.530120
-12.529392
-12.526431
-12.522793
-12.517171
-12.510728
-12.502574
-12.494559
-12.484952
-12.473186
-12.454825
-12.433532
-12.412315
-12.400130
-12.402325
-12.416672
-4.909157
-4.908463
-4.915137
-4.930985
-4.946594
-4.958440
-4.963073
-4.964284
-4.962627
-4.961166
-4.959244
-4.958241
-4.956712
-4.956098
-4.955700
-4.958065
-4.962226
-4.972020
-4.986373
-5.012151
-5.050993
-5.120251
-5.236450
-5.448453
-5.802904
-6.507918
-8.183952
-10.903659
-10.980173
-8.278778
-6.550948
-5.825916
-5.464142
-5.248933
-5.130391
-5.059985
-5.020496
-4.994541
-4.979842
-4.970147
-4.965750
-4.963532
-4.963803
-4.964450
-4.965979
-4.967055
-4.968939
-4.970406
-4.972119
-4.970906
-4.966290
-4.954427
-4.938693
-4.922890
-4.915910
-4.916592
-4.916342
-4.916114
-4.923038
-4.938624
-4.954131
-4.965693
-4.970207
-4.971167
-4.969394
-4.967558
-4.965756
-4.964051
-4.962760
-4.961498
-4.961885
-4.963431
-4.969155
-4.978304
-4.995653
-5.022071
-5.069222
-5.146983
-5.291514
-5.540483
-5.988090
-7.006270
-9.413469
-11.333242
-9.427828
-7.013557
-5.990557
-5.541483
-5.291929
-5.146813
-5.068870
-5.021734
-4.995103
-4.977913
-4.968567
-4.963215
-4.961427
-4.961328
-4.962374
-4.963928
-4.965338
-4.967373
-4.969030
-4.970923
-4.969883
-4.965392
-4.953839
-4.938266
-4.922708
-4.915842
-4.916160
-4.916137
-4.915728
-4.922549
-4.938374
-4.954120
-4.965989
-4.970593
-4.971824
-4.970117
-4.968628
-4.966709
-4.965706
-4.964126
-4.963449
-4.963192
-4.965477
-4.969712
-4.979529
-4.994240
-5.020217
-5.059883
-5.130329
-5.249115
-5.465233
-5.827894
-6.556144
-8.290689
-10.989604
-10.894564
-8.174010
-6.504217
-5.801601
-5.447862
-5.236393
-5.120535
-5.051203
-5.012518
-4.986731
-4.972196
-4.962465
-4.958315
-4.955899
-4.956269
-4.956797
-4.958429
-4.959372
-4.961305
-4.962658
-4.964346
-4.963101
-4.958486
-4.946651
-4.930916
-4.915182
-4.908259
-4.908520
2.656134
2.650268
2.633965
2.620851
2.614019
2.616997
2.625490
2.636918
2.645618
2.651200
2.651598
2.647349
2.636034
2.617415
2.588195
2.547841
2.492044
2.419387
2.322969
2.198908
2.030504
1.801584
1.468288
0.981026
0.237877
-0.967448
-3.238368
-6.233734
-6.314174
-3.345789
-1.029412
0.200839
0.954014
1.447961
1.784906
2.016480
2.186141
2.311242
2.408231
2.481437
2.537564
2.578238
2.607553
2.626355
2.637670
2.642044
2.641634
2.636037
2.627402
2.615974
2.607311
2.604389
2.611179
2.624279
2.640604
2.647107
2.647158
2.641536
2.625166
2.611989
2.605262
2.608238
2.617068
2.628619
2.637421
2.643026
2.643571
2.638757
2.627212
2.607135
2.577048
2.533852
2.475872
2.397925
2.297014
2.161565
1.980160
1.720987
1.346100
0.777811
-0.100721
-1.690591
-4.529602
-6.592796
-4.545325
-1.700971
-0.105530
0.775128
1.344753
1.720127
1.979970
2.161539
2.297156
2.398218
2.475969
2.534088
2.577082
2.607322
2.627320
2.639045
2.643628
2.643239
2.637518
2.628863
2.617327
2.608536
2.605537
2.612330
2.625507
2.641832
2.647573
2.647448
2.640923
2.624631
2.611498
2.604639
2.607612
2.616270
2.627790
2.636355
2.641907
2.642298
2.638046
2.626665
2.607888
2.578508
2.537806
2.481721
2.408410
2.311518
2.186238
2.016452
1.784338
1.446779
0.951786
0.196718
-1.037245
-3.360665
-6.325189
-6.224374
-3.226523
-0.961836
0.240469
0.982328
1.468732
1.801573
2.030299
2.198533
2.322508
2.418932
2.491441
2.547449
2.587848
2.617105
2.635602
2.647016
2.651200
2.650830
2.645311
2.636733
2.625285
2.616741
2.613865
2.620754
2.634101
2.650222
2.656316
10.333497
10.310987
10.283466
10.266018
10.265649
10.275028
10.283981
10.280928
10.263128
10.227143
10.174438
10.102860
10.012695
9.900987
9.767029
9.606390
9.417090
9.192024
8.927105
8.608038
8.220275
7.726669
7.084969
6.223679
5.060902
3.393937
1.182740
-0.624109
-0.657618
1.103071
3.323403
5.009423
6.184996
7.053899
7.701442
8.198651
8.589114
8.909780
9.176148
9.402089
9.592361
9.753620
9.888191
10.000177
10.090783
10.162584
10.215557
10.251408
10.269551
10.272780
10.263796
10.254359
10.254738
10.271992
10.299891
10.322424
10.322947
10.300755
10.273106
10.255582
10.255076
10.264500
10.273061
10.269650
10.250761
10.213793
10.159215
10.085637
9.992158
9.877249
9.737965
9.572119
9.374310
9.140794
8.861352
8.525642
8.106819
7.571074
6.856403
5.897445
4.551011
2.622905
0.436631
-0.514324
0.427316
2.612180
4.543641
5.892880
6.853242
7.569157
8.105561
8.524974
8.860997
9.140487
9.374173
9.571880
9.737909
9.877130
9.992169
10.085506
10.159215
10.213861
10.250874
10.269650
10.273172
10.264529
10.255260
10.255786
10.273266
10.301085
10.323146
10.322765
10.300050
10.272208
10.255064
10.254752
10.264068
10.273118
10.269838
10.251817
10.215864
10.162807
10.090942
10.000465
9.888291
9.753791
9.592475
9.402078
9.176119
8.909495
8.588671
8.197901
7.700032
7.051375
6.181011
5.003295
3.313720
1.091408
-0.663723
-0.620816
1.191542
3.400815
5.064834
6.225902
7.086118
7.727061
8.220240
8.607736
8.926656
9.191547
9.416453
9.605742
9.766484
9.900509
10.012144
10.102247
10.173943
10.226762
10.262522
10.280354
10.283384
10.274596
10.265154
10.265745
10.283230
10.311089
10.333247
18.069909
18.047388
18.013378
17.979062
17.934531
17.868956
17.773925
17.650450
17.497536
17.317694
17.109966
16.876101
16.614331
16.324867
16.004213
15.650761
15.258388
14.822859
14.332520
13.776111
13.126046
12.352136
11.403816
10.235708
8.761628
6.980305
5.184916
3.967334
3.943362
5.132250
6.916015
8.704134
10.187986
11.364304
12.318286
13.096856
13.750014
14.308908
14.800953
15.238119
15.631704
15.986288
16.307790
16.598101
16.860528
17.094989
17.303014
17.483330
17.636611
17.760303
17.855494
17.921452
17.965894
18.000503
18.034461
18.057585
18.057824
18.035149
18.001185
17.966192
17.920769
17.853478
17.756497
17.630339
17.474292
17.290370
17.078344
16.838828
16.571158
16.273918
15.945335
15.581026
15.177200
14.725255
14.216484
13.630516
12.942522
12.107766
11.083349
9.796732
8.182711
6.339630
4.783028
4.091005
4.776550
6.330534
8.174305
9.790301
11.078835
12.104412
12.940204
13.628860
14.215256
14.724385
15.176377
15.580471
15.944755
16.273617
16.570777
16.838635
17.078128
17.290324
17.474213
17.630350
17.756543
17.853563
17.920746
17.966170
18.001208
18.035394
18.057904
18.057676
18.034802
18.000901
17.966300
17.921758
17.855822
17.760590
17.636768
17.483498
17.303215
17.095029
16.860581
16.598097
16.307797
15.986126
15.631525
15.237831
14.800460
14.308245
13.748922
13.095223
12.315799
11.360592
10.182633
8.696565
6.906714
5.123572
3.938738
3.969376
5.190801
6.986885
8.766611
10.238875
11.405696
12.353115
13.126365
13.776037
14.332167
14.822348
15.257774
15.650164
16.003474
16.324122
16.613609
16.875390
17.109261
17.316950
17.496859
17.649671
17.773283
17.868228
17.934030
17.978402
18.013081
18.046956
18.070000
25.753639
25.684056
25.548496
25.345014
25.080192
24.762534
24.406080
24.021841
23.619864
23.201787
22.768737
22.317191
21.845987
21.351052
20.830893
20.280515
19.697214
19.073032
18.401744
17.667058
16.853915
15.934276
14.889058
13.684320
12.330032
10.915377
9.662997
8.920839
8.910195
9.628696
10.871073
12.282600
13.640156
14.848997
15.898388
16.821115
17.637063
18.373743
19.046866
19.672456
20.257157
20.808685
21.329970
21.825789
22.297899
22.750079
23.183760
23.602240
24.004602
24.389207
24.745748
25.063741
25.328956
25.532574
25.668533
25.737972
25.737766
25.667475
25.530699
25.325164
25.057329
24.735732
24.374435
23.984910
23.576968
23.152623
22.712251
22.253100
21.772711
21.268353
20.736570
20.174245
19.575376
18.934533
18.239319
17.476567
16.621273
15.652774
14.538262
13.263076
11.859851
10.506168
9.457472
9.106204
9.453463
10.499557
11.852734
13.256797
14.533078
15.648794
16.618102
17.474114
18.237411
18.932916
19.574122
20.173096
20.735720
21.267533
21.772127
22.252537
22.711902
23.152327
23.576806
23.984791
24.374441
24.735675
25.057341
25.325176
25.530608
25.667441
25.737761
25.738041
25.668623
25.532722
25.329047
25.063827
24.745810
24.389094
24.004486
23.602149
23.183617
22.749975
22.297684
21.825610
21.329616
20.808297
20.256623
19.671761
19.046001
18.372508
17.635437
16.818804
15.895201
14.844701
13.634509
12.275753
10.863720
9.622451
8.907228
8.921467
9.666913
10.920322
12.334602
13.687790
14.891405
15.935700
16.854667
17.667287
18.401647
19.072677
19.696731
20.279877
20.830234
21.350334
21.845239
22.316461
22.768020
23.201059
23.619140
24.021196
24.405489
24.762005
25.079675
25.344610
25.548016
25.683801
25.753388
31.977919
31.786055
31.418578
30.922275
30.342921
29.716973
29.069744
28.423059
27.787328
27.168202
26.563310
25.970705
25.385435
24.805668
24.227616
23.650811
23.071638
22.489523
21.898211
21.294702
20.667418
20.010930
19.306658
18.548158
17.729862
16.893110
16.165010
15.718815
15.711119
16.148309
16.869215
17.705277
18.523802
19.283617
19.988569
20.645812
21.273338
21.877214
22.468618
23.051001
23.630319
24.207438
24.785700
25.365804
25.951294
26.544150
27.149153
27.768360
28.404049
29.050634
29.697017
30.323177
30.901832
31.397492
31.763713
31.954535
31.952816
31.758660
31.388400
30.888268
30.304238
29.672596
29.019323
28.366298
27.724413
27.098831
26.487687
25.888200
25.296419
24.709152
24.124300
23.539089
22.952265
22.359287
21.757167
21.136377
20.491110
19.806225
19.073175
18.280153
17.453714
16.653819
16.074621
15.826593
16.072051
16.649639
17.449081
18.275792
19.069473
19.803032
20.488474
21.134129
21.755226
22.357664
22.950767
23.537856
24.123103
24.708200
25.295486
25.887486
26.487021
27.098354
27.724002
28.366058
29.019091
29.672483
30.304093
30.888121
31.388176
31.758376
31.952482
31.954130
31.763263
31.396999
30.901391
30.322757
29.697086
29.050100
28.403580
27.767906
27.148772
26.543723
25.950907
25.365290
24.785189
24.206782
23.629593
23.050135
22.467543
21.875937
21.271655
20.643708
19.985873
19.280233
18.519691
17.700527
16.864325
16.144330
15.708929
15.719234
16.167238
16.896367
17.733025
18.550800
19.308631
20.012304
20.668273
21.295172
21.898360
22.489461
23.071363
23.650444
24.227118
24.805119
25.384841
25.970122
26.562710
27.167644
27.786814
28.422584
29.069351
29.716615
30.342684
30.921966
31.418446
31.785800
31.977969
26.342833
26.294274
26.241446
26.225350
26.262119
26.345718
26.469558
26.625067
26.806728
27.007306
27.223616
27.451598
27.690265
27.936821
28.190466
28.447664
28.706317
28.959813
29.201566
29.415956
29.583344
29.666508
29.620196
29.383015
28.914533
28.245229
27.535195
27.063493
27.057945
27.520691
28.231516
28.907082
29.384724
29.629645
29.681941
29.602634
29.437907
29.225087
28.984462
28.731611
28.473485
28.216572
27.963214
27.716811
27.478337
27.250477
27.034350
26.833889
26.652399
26.496832
26.373214
26.289543
26.252875
26.268489
26.320787
26.368131
26.367241
26.318172
26.265146
26.249377
26.286742
26.371629
26.497171
26.654974
26.839019
27.042345
27.261144
27.491962
27.732867
27.982034
28.237105
28.495897
28.753707
29.005443
29.239738
29.441837
29.583195
29.626260
29.514972
29.197900
28.652292
27.976275
27.372096
27.139562
27.369249
27.971845
28.647852
29.194368
29.512475
29.624651
29.582129
29.441125
29.239232
29.005002
28.753375
28.495511
28.236801