<VTKFile type='UnstructuredGrid' version='0.1' byte_order='BigEndian'> 
<UnstructuredGrid> 
<Piece NumberOfPoints='  1089 ' NumberOfCells='  1024 '> 
<Points> 
<DataArray type='Float32' NumberOfComponents='3' Format='ascii'> 
0.000000e+00 0.000000e+00 0.000000e+00 
3.125000e-02 0.000000e+00 0.000000e+00 
6.250000e-02 0.000000e+00 0.000000e+00 
9.375000e-02 0.000000e+00 0.000000e+00 
1.250000e-01 0.000000e+00 0.000000e+00 
1.562500e-01 0.000000e+00 0.000000e+00 
1.875000e-01 0.000000e+00 0.000000e+00 
2.187500e-01 0.000000e+00 0.000000e+00 
2.500000e-01 0.000000e+00 0.000000e+00 
2.812500e-01 0.000000e+00 0.000000e+00 
3.125000e-01 0.000000e+00 0.000000e+00 
3.437500e-01 0.000000e+00 0.000000e+00 
3.750000e-01 0.000000e+00 0.000000e+00 
4.062500e-01 0.000000e+00 0.000000e+00 
4.375000e-01 0.000000e+00 0.000000e+00 
4.687500e-01 0.000000e+00 0.000000e+00 
5.000000e-01 0.000000e+00 0.000000e+00 
5.312500e-01 0.000000e+00 0.000000e+00 
5.625000e-01 0.000000e+00 0.000000e+00 
5.937500e-01 0.000000e+00 0.000000e+00 
6.250000e-01 0.000000e+00 0.000000e+00 
6.562500e-01 0.000000e+00 0.000000e+00 
6.875000e-01 0.000000e+00 0.000000e+00 
7.187500e-01 0.000000e+00 0.000000e+00 
7.500000e-01 0.000000e+00 0.000000e+00 
7.812500e-01 0.000000e+00 0.000000e+00 
8.125000e-01 0.000000e+00 0.000000e+00 
8.437500e-01 0.000000e+00 0.000000e+00 
8.750000e-01 0.000000e+00 0.000000e+00 
9.062500e-01 0.000000e+00 0.000000e+00 
9.375000e-01 0.000000e+00 0.000000e+00 
9.687500e-01 0.000000e+00 0.000000e+00 
1.000000e+00 0.000000e+00 0.000000e+00 
0.000000e+00 3.125000e-02 0.000000e+00 
3.125000e-02 3.125000e-02 0.000000e+00 
6.250000e-02 3.125000e-02 0.000000e+00 
9.375000e-02 3.125000e-02 0.000000e+00 
1.250000e-01 3.125000e-02 0.000000e+00 
1.562500e-01 3.125000e-02 0.000000e+00 
1.875000e-01 3.125000e-02 0.000000e+00 
2.187500e-01 3.125000e-02 0.000000e+00 
2.500000e-01 3.125000e-02 0.000000e+00 
2.812500e-01 3.125000e-02 0.000000e+00 
3.125000e-01 3.125000e-02 0.000000e+00 
3.437500e-01 3.125000e-02 0.000000e+00 
3.750000e-01 3.125000e-02 0.000000e+00 
4.062500e-01 3.125000e-02 0.000000e+00 
4.375000e-01 3.125000e-02 0.000000e+00 
4.687500e-01 3.125000e-02 0.000000e+00 
5.000000e-01 3.125000e-02 0.000000e+00 
5.312500e-01 3.125000e-02 0.000000e+00 
5.625000e-01 3.125000e-02 0.000000e+00 
5.937500e-01 3.125000e-02 0.000000e+00 
6.250000e-01 3.125000e-02 0.000000e+00 
6.562500e-01 3.125000e-02 0.000000e+00 
6.875000e-01 3.125000e-02 0.000000e+00 
7.187500e-01 3.125000e-02 0.000000e+00 
7.500000e-01 3.125000e-02 0.000000e+00 
7.812500e-01 3.125000e-02 0.000000e+00 
8.125000e-01 3.125000e-02 0.000000e+00 
8.437500e-01 3.125000e-02 0.000000e+00 
8.750000e-01 3.125000e-02 0.000000e+00 
9.062500e-01 3.125000e-02 0.000000e+00 
9.375000e-01 3.125000e-02 0.000000e+00 
9.687500e-01 3.125000e-02 0.000000e+00 
1.000000e+00 3.125000e-02 0.000000e+00 
0.000000e+00 6.250000e-02 0.000000e+00 
3.125000e-02 6.250000e-02 0.000000e+00 
6.250000e-02 6.250000e-02 0.000000e+00 
9.375000e-02 6.250000e-02 0.000000e+00 
1.250000e-01 6.250000e-02 0.000000e+00 
1.562500e-01 6.250000e-02 0.000000e+00 
1.875000e-01 6.250000e-02 0.000000e+00 
2.187500e-01 6.250000e-02 0.000000e+00 
2.500000e-01 6.250000e-02 0.000000e+00 
2.812500e-01 6.250000e-02 0.000000e+00 
3.125000e-01 6.250000e-02 0.000000e+00 
3.437500e-01 6.250000e-02 0.000000e+00 
3.750000e-01 6.250000e-02 0.000000e+00 
4.062500e-01 6.250000e-02 0.000000e+00 
4.375000e-01 6.250000e-02 0.000000e+00 
4.687500e-01 6.250000e-02 0.000000e+00 
5.000000e-01 6.250000e-02 0.000000e+00 
5.312500e-01 6.250000e-02 0.000000e+00 
5.625000e-01 6.250000e-02 0.000000e+00 
5.937500e-01 6.250000e-02 0.000000e+00 
6.250000e-01 6.250000e-02 0.000000e+00 
6.562500e-01 6.250000e-02 0.000000e+00 
6.875000e-01 6.250000e-02 0.000000e+00 
7.187500e-01 6.250000e-02 0.000000e+00 
7.500000e-01 6.250000e-02 0.000000e+00 
7.812500e-01 6.250000e-02 0.000000e+00 
8.125000e-01 6.250000e-02 0.000000e+00 
8.437500e-01 6.250000e-02 0.000000e+00 
8.750000e-01 6.250000e-02 0.000000e+00 
9.062500e-01 6.250000e-02 0.000000e+00 
9.375000e-01 6.250000e-02 0.000000e+00 
9.687500e-01 6.250000e-02 0.000000e+00 
1.000000e+00 6.250000e-02 0.000000e+00 
0.000000e+00 9.375000e-02 0.000000e+00 
3.125000e-02 9.375000e-02 0.000000e+00 
6.250000e-02 9.375000e-02 0.000000e+00 
9.375000e-02 9.375000e-02 0.000000e+00 
1.250000e-01 9.375000e-02 0.000000e+00 
1.562500e-01 9.375000e-02 0.000000e+00 
1.875000e-01 9.375000e-02 0.000000e+00 
2.187500e-01 9.375000e-02 0.000000e+00 
2.500000e-01 9.375000e-02 0.000000e+00 
2.812500e-01 9.375000e-02 0.000000e+00 
3.125000e-01 9.375000e-02 0.000000e+00 
3.437500e-01 9.375000e-02 0.000000e+00 
3.750000e-01 9.375000e-02 0.000000e+00 
4.062500e-01 9.375000e-02 0.000000e+00 
4.375000e-01 9.375000e-02 0.000000e+00 
4.687500e-01 9.375000e-02 0.000000e+00 
5.000000e-01 9.375000e-02 0.000000e+00 
5.312500e-01 9.375000e-02 0.000000e+00 
5.625000e-01 9.375000e-02 0.000000e+00 
5.937500e-01 9.375000e-02 0.000000e+00 
6.250000e-01 9.375000e-02 0.000000e+00 
6.562500e-01 9.375000e-02 0.000000e+00 
6.875000e-01 9.375000e-02 0.000000e+00 
7.187500e-01 9.375000e-02 0.000000e+00 
7.500000e-01 9.375000e-02 0.000000e+00 
7.812500e-01 9.375000e-02 0.000000e+00 
8.125000e-01 9.375000e-02 0.000000e+00 
8.437500e-01 9.375000e-02 0.000000e+00 
8.750000e-01 9.375000e-02 0.000000e+00 
9.062500e-01 9.375000e-02 0.000000e+00 
9.375000e-01 9.375000e-02 0.000000e+00 
9.687500e-01 9.375000e-02 0.000000e+00 
1.000000e+00 9.375000e-02 0.000000e+00 
0.000000e+00 1.250000e-01 0.000000e+00 
3.125000e-02 1.250000e-01 0.000000e+00 
6.250000e-02 1.250000e-01 0.000000e+00 
9.375000e-02 1.250000e-01 0.000000e+00 
1.250000e-01 1.250000e-01 0.000000e+00 
1.562500e-01 1.250000e-01 0.000000e+00 
1.875000e-01 1.250000e-01 0.000000e+00 
2.187500e-01 1.250000e-01 0.000000e+00 
2.500000e-01 1.250000e-01 0.000000e+00 
2.812500e-01 1.250000e-01 0.000000e+00 
3.125000e-01 1.250000e-01 0.000000e+00 
3.437500e-01 1.250000e-01 0.000000e+00 
3.750000e-01 1.250000e-01 0.000000e+00 
4.062500e-01 1.250000e-01 0.000000e+00 
4.375000e-01 1.250000e-01 0.000000e+00 
4.687500e-01 1.250000e-01 0.000000e+00 
5.000000e-01 1.250000e-01 0.000000e+00 
5.312500e-01 1.250000e-01 0.000000e+00 
5.625000e-01 1.250000e-01 0.000000e+00 
5.937500e-01 1.250000e-01 0.000000e+00 
6.250000e-01 1.250000e-01 0.000000e+00 
6.562500e-01 1.250000e-01 0.000000e+00 
6.875000e-01 1.250000e-01 0.000000e+00 
7.187500e-01 1.250000e-01 0.000000e+00 
7.500000e-01 1.250000e-01 0.000000e+00 
7.812500e-01 1.250000e-01 0.000000e+00 
8.125000e-01 1.250000e-01 0.000000e+00 
8.437500e-01 1.250000e-01 0.000000e+00 
8.750000e-01 1.250000e-01 0.000000e+00 
9.062500e-01 1.250000e-01 0.000000e+00 
9.375000e-01 1.250000e-01 0.000000e+00 
9.687500e-01 1.250000e-01 0.000000e+00 
1.000000e+00 1.250000e-01 0.000000e+00 
0.000000e+00 1.562500e-01 0.000000e+00 
3.125000e-02 1.562500e-01 0.000000e+00 
6.250000e-02 1.562500e-01 0.000000e+00 
9.375000e-02 1.562500e-01 0.000000e+00 
1.250000e-01 1.562500e-01 0.000000e+00 
1.562500e-01 1.562500e-01 0.000000e+00 
1.875000e-01 1.562500e-01 0.000000e+00 
2.187500e-01 1.562500e-01 0.000000e+00 
2.500000e-01 1.562500e-01 0.000000e+00 
2.812500e-01 1.562500e-01 0.000000e+00 
3.125000e-01 1.562500e-01 0.000000e+00 
3.437500e-01 1.562500e-01 0.000000e+00 
3.750000e-01 1.562500e-01 0.000000e+00 
4.062500e-01 1.562500e-01 0.000000e+00 
4.375000e-01 1.562500e-01 0.000000e+00 
4.687500e-01 1.562500e-01 0.000000e+00 
5.000000e-01 1.562500e-01 0.000000e+00 
5.312500e-01 1.562500e-01 0.000000e+00 
5.625000e-01 1.562500e-01 0.000000e+00 
5.937500e-01 1.562500e-01 0.000000e+00 
6.250000e-01 1.562500e-01 0.000000e+00 
6.562500e-01 1.562500e-01 0.000000e+00 
6.875000e-01 1.562500e-01 0.000000e+00 
7.187500e-01 1.562500e-01 0.000000e+00 
7.500000e-01 1.562500e-01 0.000000e+00 
7.812500e-01 1.562500e-01 0.000000e+00 
8.125000e-01 1.562500e-01 0.000000e+00 
8.437500e-01 1.562500e-01 0.000000e+00 
8.750000e-01 1.562500e-01 0.000000e+00 
9.062500e-01 1.562500e-01 0.000000e+00 
9.375000e-01 1.562500e-01 0.000000e+00 
9.687500e-01 1.562500e-01 0.000000e+00 
1.000000e+00 1.562500e-01 0.000000e+00 
0.000000e+00 1.875000e-01 0.000000e+00 
3.125000e-02 1.875000e-01 0.000000e+00 
6.250000e-02 1.875000e-01 0.000000e+00 
9.375000e-02 1.875000e-01 0.000000e+00 
1.250000e-01 1.875000e-01 0.000000e+00 
1.562500e-01 1.875000e-01 0.000000e+00 
1.875000e-01 1.875000e-01 0.000000e+00 
2.187500e-01 1.875000e-01 0.000000e+00 
2.500000e-01 1.875000e-01 0.000000e+00 
2.812500e-01 1.875000e-01 0.000000e+00 
3.125000e-01 1.875000e-01 0.000000e+00 
3.437500e-01 1.875000e-01 0.000000e+00 
3.750000e-01 1.875000e-01 0.000000e+00 
4.062500e-01 1.875000e-01 0.000000e+00 
4.375000e-01 1.875000e-01 0.000000e+00 
4.687500e-01 1.875000e-01 0.000000e+00 
5.000000e-01 1.875000e-01 0.000000e+00 
5.312500e-01 1.875000e-01 0.000000e+00 
5.625000e-01 1.875000e-01 0.000000e+00 
5.937500e-01 1.875000e-01 0.000000e+00 
6.250000e-01 1.875000e-01 0.000000e+00 
6.562500e-01 1.875000e-01 0.000000e+00 
6.875000e-01 1.875000e-01 0.000000e+00 
7.187500e-01 1.875000e-01 0.000000e+00 
7.500000e-01 1.875000e-01 0.000000e+00 
7.812500e-01 1.875000e-01 0.000000e+00 
8.125000e-01 1.875000e-01 0.000000e+00 
8.437500e-01 1.875000e-01 0.000000e+00 
8.750000e-01 1.875000e-01 0.000000e+00 
9.062500e-01 1.875000e-01 0.000000e+00 
9.375000e-01 1.875000e-01 0.000000e+00 
9.687500e-01 1.875000e-01 0.000000e+00 
1.000000e+00 1.875000e-01 0.000000e+00 
0.000000e+00 2.187500e-01 0.000000e+00 
3.125000e-02 2.187500e-01 0.000000e+00 
6.250000e-02 2.187500e-01 0.000000e+00 
9.375000e-02 2.187500e-01 0.000000e+00 
1.250000e-01 2.187500e-01 0.000000e+00 
1.562500e-01 2.187500e-01 0.000000e+00 
1.875000e-01 2.187500e-01 0.000000e+00 
2.187500e-01 2.187500e-01 0.000000e+00 
2.500000e-01 2.187500e-01 0.000000e+00 
2.812500e-01 2.187500e-01 0.000000e+00 
3.125000e-01 2.187500e-01 0.000000e+00 
3.437500e-01 2.187500e-01 0.000000e+00 
3.750000e-01 2.187500e-01 0.000000e+00 
[...]
<CellData Scalars='scalars'>
<DataArray type='Float32' Name='p' Format='ascii'> 
-1.960487e+01
-1.962932e+01
-1.967912e+01
-1.975660e+01
-1.986652e+01
-2.001752e+01
-2.022342e+01
-2.050372e+01
-2.088180e+01
-2.138025e+01
-2.201356e+01
-2.278090e+01
-2.366330e+01
-2.462843e+01
-2.564184e+01
-2.667747e+01
-2.772056e+01
-2.876171e+01
-2.978660e+01
-3.076687e+01
-3.165766e+01
-3.240470e+01
-3.296088e+01
-3.330700e+01
-3.346225e+01
-3.347360e+01
-3.339544e+01
-3.327550e+01
-3.314983e+01
-3.304279e+01
-3.296823e+01
-3.293098e+01
-1.985778e+01
-1.985601e+01
-1.985441e+01
-1.985724e+01
-1.987185e+01
-1.990945e+01
-1.998547e+01
-2.011907e+01
-2.033120e+01
-2.064145e+01
-2.106435e+01
-2.160616e+01
-2.226208e+01
-2.301528e+01
-2.384050e+01
-2.471084e+01
-2.560158e+01
-2.648975e+01
-2.735117e+01
-2.815723e+01
-2.887404e+01
-2.946688e+01
-2.990832e+01
-3.018698e+01
-3.031575e+01
-3.032817e+01
-3.026400e+01
-3.015960e+01
-3.004358e+01
-2.993682e+01
-2.985605e+01
-2.981330e+01
-1.905391e+01
-1.906604e+01
-1.909157e+01
-1.913317e+01
-1.919519e+01
-1.928369e+01
-1.940666e+01
-1.957365e+01
-1.979545e+01
-2.008264e+01
-2.044402e+01
-2.088377e+01
-2.139802e+01
-2.197358e+01
-2.259363e+01
-2.324349e+01
-2.391003e+01
-2.457808e+01
-2.522788e+01
-2.583306e+01
-2.636370e+01
-2.679546e+01
-2.711473e+01
-2.731648e+01
-2.740709e+01
-2.740467e+01
-2.733272e+01
-2.721541e+01
-2.707418e+01
-2.692863e+01
-2.680542e+01
-2.673515e+01
-1.791404e+01
-1.793335e+01
-1.797278e+01
-1.803424e+01
-1.812078e+01
-1.823675e+01
-1.838732e+01
-1.857843e+01
-1.881639e+01
-1.910811e+01
-1.945907e+01
-1.986844e+01
-2.032295e+01
-2.080101e+01
-2.128518e+01
-2.176836e+01
-2.224892e+01
-2.272525e+01
-2.318997e+01
-2.362585e+01
-2.400803e+01
-2.431719e+01
-2.454631e+01
-2.469253e+01
-2.475299e+01
-2.472975e+01
-2.463214e+01
-2.447421e+01
-2.427191e+01
-2.404649e+01
-2.384195e+01
-2.372016e+01
-1.680497e+01
-1.683131e+01
-1.688373e+01
-1.696212e+01
-1.706730e+01
-1.720086e+01
-1.736505e+01
-1.756224e+01
-1.779608e+01
-1.807150e+01
-1.839200e+01
-1.875213e+01
-1.913470e+01
-1.951823e+01
-1.988857e+01
-2.024067e+01
-2.057603e+01
-2.089825e+01
-2.120867e+01
-2.150219e+01
-2.176790e+01
-2.199515e+01
-2.217591e+01
-2.229740e+01
-2.234284e+01
-2.230070e+01
-2.216916e+01
-2.195369e+01
-2.166480e+01
-2.132660e+01
-2.100785e+01
-2.081348e+01
-1.568678e+01
-1.572016e+01
-1.578524e+01
-1.587943e+01
-1.600002e+01
-1.614497e+01
-1.631273e+01
-1.650391e+01
-1.672176e+01
-1.697098e+01
-1.725132e+01
-1.755311e+01
-1.785851e+01
-1.815116e+01
-1.842093e+01
-1.866491e+01
-1.888601e+01
-1.909095e+01
-1.928602e+01
-1.947572e+01
-1.966001e+01
-1.983431e+01
-1.998608e+01
-2.009298e+01
-2.012799e+01
-2.006967e+01
-1.990656e+01
-1.963583e+01
-1.926004e+01
-1.880172e+01
-1.835705e+01
-1.808179e+01
-1.454248e+01
-1.458176e+01
-1.465733e+01
-1.476326e+01
-1.489171e+01
-1.503493e+01
-1.518956e+01
-1.535814e+01
-1.554709e+01
-1.575997e+01
-1.599308e+01
-1.623379e+01
-1.646719e+01
-1.668109e+01
-1.686839e+01
-1.702748e+01
-1.716417e+01
-1.728778e+01
-1.740908e+01
-1.753692e+01
-1.767475e+01
-1.781605e+01
-1.794413e+01
-1.803247e+01
-1.805105e+01
-1.797370e+01
-1.778394e+01
-1.747411e+01
-1.703791e+01
-1.648738e+01
-1.593832e+01
-1.559560e+01
-1.337416e+01
-1.341760e+01
-1.349928e+01
-1.360807e+01
-1.372863e+01
-1.385003e+01
-1.397198e+01
-1.410314e+01
-1.425177e+01
-1.442022e+01
-1.460135e+01
-1.478353e+01
-1.495495e+01
-1.510681e+01
-1.523240e+01
-1.533204e+01
-1.541326e+01
-1.548789e+01
-1.556775e+01
-1.566293e+01
-1.577478e+01
-1.589367e+01
-1.599955e+01
-1.606580e+01
-1.606235e+01
-1.596299e+01
-1.575194e+01
-1.542363e+01
-1.496621e+01
-1.437674e+01
-1.377528e+01
-1.339950e+01
-1.219196e+01
-1.223675e+01
-1.231471e+01
-1.240533e+01
-1.249154e+01
-1.256940e+01
-1.264633e+01
-1.273270e+01
-1.283667e+01
-1.295744e+01
-1.308797e+01
-1.321850e+01
-1.334115e+01
-1.344737e+01
-1.353082e+01
-1.359226e+01
-1.364110e+01
-1.368860e+01
-1.374665e+01
-1.382341e+01
-1.391874e+01
-1.401972e+01
-1.410547e+01
-1.414964e+01
-1.412429e+01
-1.400561e+01
-1.378342e+01
-1.345810e+01
-1.301666e+01
-1.244529e+01
-1.185563e+01
-1.149004e+01
-1.101364e+01
-1.105113e+01
-1.109901e+01
-1.113324e+01
-1.115409e+01
-1.117505e+01
-1.120595e+01
-1.125257e+01
-1.131567e+01
-1.139312e+01
-1.147899e+01
-1.156828e+01
-1.165454e+01
-1.172902e+01
-1.178390e+01
-1.182167e+01
-1.185134e+01
-1.188382e+01
-1.192858e+01
-1.199315e+01
-1.207529e+01
-1.216142e+01
-1.222940e+01
-1.225473e+01
-1.221211e+01
-1.208345e+01
-1.186562e+01
-1.156447e+01
-1.116806e+01
-1.066015e+01
-1.013689e+01
-9.817580e+00
-9.860679e+00
-9.860235e+00
-9.825653e+00
-9.759929e+00
-9.694613e+00
-9.655437e+00
-9.651617e+00
-9.673928e+00
-9.710241e+00
-9.753595e+00
-9.804298e+00
-9.862006e+00
-9.922384e+00
-9.973714e+00
-1.000822e+01
-1.002928e+01
-1.004656e+01
-1.006834e+01
-1.010337e+01
-1.015713e+01
-1.022796e+01
-1.030089e+01
-1.035432e+01
-1.036489e+01
-1.031276e+01
-1.018694e+01
-9.990860e+00
-9.732050e+00
-9.401344e+00
-8.985885e+00
-8.562213e+00
-8.308441e+00
-8.729935e+00
-8.624894e+00
-8.448883e+00
-8.257189e+00
-8.099998e+00
-8.010442e+00
-7.988844e+00
-8.009539e+00
-8.038727e+00
-8.062888e+00
-8.087630e+00
-8.122517e+00
-8.163760e+00
-8.196772e+00
-8.213984e+00
-8.221930e+00
-8.228656e+00
-8.241735e+00
-8.267193e+00
-8.311004e+00
-8.370731e+00
-8.432477e+00
-8.473664e+00
-8.474338e+00
-8.420952e+00
-8.311223e+00
-8.151348e+00
-7.948236e+00
-7.696129e+00
-7.386921e+00
-7.074417e+00
-6.889401e+00
-7.530171e+00
-7.258635e+00
-6.914691e+00
-6.598581e+00
-6.367135e+00
-6.249075e+00
-6.231899e+00
-6.268891e+00
-6.312530e+00
-6.334889e+00
-6.345103e+00
-6.363724e+00
-6.390312e+00
-6.406239e+00
-6.407769e+00
-6.403650e+00
-6.401465e+00
-6.405675e+00
-6.422396e+00
-6.455671e+00
-6.505235e+00
-6.556510e+00
-6.587988e+00
-6.582605e+00
-6.536195e+00
-6.452773e+00
-6.338713e+00
-6.198883e+00
-6.031215e+00
-5.829540e+00
-5.624140e+00
-5.501324e+00
-6.057357e+00
-5.633524e+00
-5.147953e+00
-4.758004e+00
-4.500812e+00
-4.391557e+00
-4.399606e+00
-4.465694e+00
-4.533894e+00
-4.574874e+00
-4.584711e+00
-4.593714e+00
-4.607990e+00
-4.605881e+00
-4.593213e+00
-4.579715e+00
-4.568888e+00
-4.565626e+00
-4.572993e+00
-4.596314e+00
-4.635004e+00
-4.676991e+00
-4.699724e+00
-4.692286e+00
-4.659086e+00
-4.608522e+00
-4.544286e+00
-4.470220e+00
-4.386025e+00
-4.283895e+00
-4.172433e+00
-4.101466e+00
-4.120966e+00
-3.616348e+00
-3.086636e+00
-2.729492e+00
-2.527340e+00
-2.468939e+00
-2.519732e+00
-2.617707e+00
-2.712934e+00
-2.778604e+00
-2.809431e+00
-2.818788e+00
-2.816723e+00
-2.799127e+00
-2.777923e+00
-2.756151e+00
-2.738740e+00
-2.727157e+00
-2.725820e+00
-2.737623e+00
-2.765238e+00
-2.797102e+00
-2.812368e+00
-2.805592e+00
-2.790376e+00
-2.774595e+00
-2.760056e+00
-2.749297e+00
-2.741788e+00
-2.724788e+00
-2.689915e+00
-2.660036e+00
-1.653320e+00
-1.236566e+00
-8.172182e-01
-6.017663e-01
-5.196504e-01
-5.396439e-01
-6.354581e-01
-7.613659e-01
-8.772576e-01
-9.650450e-01
-1.019843e+00
-1.041359e+00
-1.026781e+00
-1.002157e+00
-9.724950e-01
-9.440847e-01
-9.179037e-01
-8.979668e-01
-8.855972e-01
-8.852504e-01
-8.988982e-01
-9.201158e-01
-9.276135e-01
-9.246459e-01
-9.290812e-01
-9.469055e-01
-9.780863e-01
-1.024194e+00
-1.081533e+00
-1.131544e+00
-1.154550e+00
-1.155848e+00
7.422710e-01
1.042281e+00
1.322821e+00
1.414337e+00
1.395906e+00
1.315318e+00
1.191600e+00
1.054431e+00
9.265015e-01
8.226520e-01
7.465564e-01
7.163380e-01
7.346839e-01
7.715767e-01
8.104582e-01
8.501974e-01
8.864752e-01
9.186067e-01
9.429973e-01
9.585739e-01
9.609183e-01
9.534072e-01
9.530137e-01
9.504222e-01
9.266596e-01
8.796951e-01
8.093519e-01
7.167363e-01
6.098600e-01
5.126671e-01
4.501068e-01
4.266152e-01
2.651248e+00
2.933086e+00
3.166055e+00
3.208052e+00
3.150061e+00
3.050292e+00
2.931664e+00
2.803267e+00
2.679193e+00
2.568756e+00
2.489541e+00
2.458055e+00
2.474980e+00
2.518999e+00
2.571421e+00
2.623741e+00
2.674729e+00
2.720610e+00
2.760766e+00
2.792216e+00
2.814259e+00
2.823148e+00
2.830146e+00
2.820230e+00
2.780973e+00
2.710934e+00
2.610910e+00
2.484838e+00
2.345946e+00
2.221026e+00
2.135780e+00
2.098270e+00
4.384040e+00
4.649880e+00
4.834010e+00
4.842750e+00
4.768553e+00
4.682591e+00
4.593164e+00
4.493306e+00
4.384551e+00
4.284026e+00
4.211594e+00
4.184337e+00
4.201235e+00
4.250654e+00
4.314328e+00
4.382533e+00
4.449161e+00
4.512768e+00
4.569935e+00
4.620183e+00
4.661272e+00
4.691226e+00
4.704763e+00
4.689277e+00
4.639758e+00
4.554736e+00
4.436059e+00
4.291541e+00
4.138136e+00
4.003069e+00
3.909416e+00
3.865310e+00
6.078474e+00
6.305483e+00
6.418715e+00
6.381594e+00
6.298544e+00
6.241976e+00
6.199205e+00
6.136925e+00
6.055783e+00
5.973784e+00
5.916459e+00
5.896857e+00
5.919045e+00
5.973828e+00
6.049577e+00
6.133038e+00
6.218645e+00
6.301089e+00
6.378871e+00
6.448970e+00
6.510466e+00
6.560963e+00
6.583358e+00
6.566004e+00
6.512374e+00
6.420715e+00
6.295551e+00
6.147269e+00
5.995164e+00
5.864043e+00
5.772995e+00
5.728526e+00
7.808949e+00
7.946320e+00
7.956264e+00
7.859142e+00
7.769501e+00
7.756050e+00
7.766130e+00
7.749864e+00
7.701575e+00
7.646435e+00
7.607623e+00
7.602368e+00
7.633379e+00
7.698389e+00
7.786079e+00
7.887301e+00
7.992342e+00
8.097292e+00
8.197134e+00
8.290146e+00
8.373222e+00
8.442016e+00
8.474529e+00
8.461877e+00
8.409451e+00
8.320096e+00
8.199521e+00
8.060460e+00
7.921726e+00
7.804523e+00
7.723347e+00
7.683022e+00
9.600560e+00
9.578329e+00
9.458080e+00
9.289849e+00
9.205866e+00
9.240689e+00
9.309748e+00
9.341819e+00
9.333445e+00
9.308352e+00
9.295061e+00
9.307878e+00
9.355011e+00
9.433091e+00
9.537221e+00
9.656615e+00
9.784561e+00
9.913095e+00
1.003854e+01
1.015555e+01
1.026126e+01
1.034511e+01
1.038939e+01
1.038646e+01
1.034223e+01
1.026264e+01
1.015612e+01
1.003548e+01
9.917952e+00
9.820163e+00
9.752756e+00
9.719036e+00
1.136868e+01
1.117035e+01
1.091609e+01
1.069259e+01
1.062323e+01
1.071064e+01
1.083850e+01
1.092449e+01
1.095908e+01
1.097185e+01
1.098804e+01
1.102699e+01
1.109414e+01
1.119217e+01
1.131477e+01
1.145665e+01
1.160823e+01
1.176385e+01
1.191563e+01
1.205881e+01
1.218540e+01
1.228396e+01
1.233978e+01
1.234990e+01
1.231901e+01
1.225553e+01
1.216900e+01
1.207216e+01
1.197918e+01
1.190274e+01
1.185019e+01
1.182388e+01
1.292598e+01
1.265707e+01
1.232765e+01
1.208116e+01
1.203598e+01
1.217352e+01
1.236245e+01
1.250434e+01
1.259073e+01
1.264644e+01
1.270132e+01
1.277068e+01
1.286576e+01
1.298681e+01
1.313381e+01
1.329944e+01
1.347845e+01
1.366150e+01
1.384204e+01
1.401040e+01
1.415735e+01
1.426893e+01
1.433670e+01
1.436008e+01
1.434546e+01
1.430109e+01
1.423748e+01
1.416577e+01
1.409747e+01
1.404157e+01
1.400323e+01
1.398401e+01
1.421160e+01
1.399384e+01
1.368392e+01
1.345936e+01
1.344857e+01
1.363717e+01
1.388519e+01
1.409086e+01
1.423516e+01
1.434466e+01
1.444311e+01
1.455131e+01
1.467730e+01
1.482810e+01
1.500134e+01
1.519546e+01
1.540238e+01
1.561577e+01
1.582452e+01
1.601850e+01
1.618321e+01
1.630721e+01
1.638546e+01
1.642179e+01
1.642290e+01
1.639809e+01
1.635681e+01
1.630897e+01
1.626304e+01
1.622550e+01
1.619968e+01
1.618674e+01
1.532476e+01
1.518570e+01
1.496681e+01
1.481243e+01
1.485769e+01
1.509798e+01
1.540972e+01
1.568442e+01
1.589891e+01
1.606778e+01
1.621822e+01
1.636692e+01
1.652976e+01
1.671127e+01
1.691584e+01
1.713899e+01
1.737737e+01
1.762108e+01
1.786037e+01
1.807880e+01
1.826079e+01
1.839604e+01
1.848501e+01
1.853291e+01
1.854866e+01
1.854128e+01
1.852011e+01
1.849293e+01
1.846621e+01
1.844410e+01
1.842887e+01
1.842121e+01
1.634400e+01
1.627082e+01
1.616198e+01
1.611544e+01
1.623747e+01
1.653964e+01
1.691915e+01
1.727669e+01
1.756995e+01
1.780828e+01
1.801062e+01
1.820303e+01
1.840010e+01
1.861533e+01
1.884989e+01
1.910497e+01
1.937374e+01
1.965015e+01
1.991996e+01
2.016403e+01
2.036455e+01
2.051534e+01
2.061758e+01
2.067911e+01
2.070939e+01
2.071875e+01
2.071557e+01
2.070666e+01
2.069640e+01
2.068758e+01
2.068137e+01
2.067825e+01
1.727740e+01
1.726548e+01
1.726500e+01
1.733265e+01
1.754233e+01
1.790815e+01
1.836521e+01
1.881790e+01
1.921096e+01
1.952678e+01
1.978647e+01
2.001611e+01
2.024551e+01
2.048716e+01
2.075051e+01
2.103194e+01
2.132859e+01
2.163255e+01
2.193212e+01
2.220315e+01
2.242949e+01
2.260393e+01
2.272862e+01
2.281097e+01
2.286201e+01
2.289196e+01
2.290955e+01
2.292031e+01
2.292749e+01
2.293243e+01
2.293569e+01
2.293732e+01
1.809828e+01
1.814605e+01
1.824888e+01
1.842547e+01
1.870602e+01
1.911745e+01
1.963380e+01
2.019185e+01
2.071104e+01
2.114141e+01
2.147197e+01
2.174206e+01
2.198899e+01
2.224646e+01
2.252111e+01
2.281521e+01
2.312566e+01
2.344824e+01
2.376710e+01
2.406253e+01
2.431524e+01
2.451861e+01
2.467439e+01
2.478953e+01
2.487288e+01
2.493463e+01
2.498243e+01
2.502086e+01
2.505153e+01
2.507489e+01
2.509070e+01
2.509871e+01
1.876835e+01
1.886748e+01
1.906016e+01
1.933295e+01
1.967088e+01
2.007779e+01
2.058789e+01
2.120000e+01
2.187226e+01
2.249406e+01
2.296298e+01
2.327662e+01
2.352980e+01
2.377609e+01
2.403600e+01
2.431412e+01
2.461182e+01
2.491868e+01
2.522101e+01
2.549424e+01
2.572358e+01
2.591145e+01
2.606618e+01
2.619434e+01
2.630366e+01
2.639980e+01
2.648508e+01
2.655900e+01
2.662043e+01
2.666794e+01
2.670038e+01
2.671683e+01
1.924629e+01
1.938281e+01
1.963932e+01
1.998410e+01
2.037237e+01
2.076450e+01
2.117476e+01
2.171060e+01
2.248081e+01
2.342906e+01
2.412507e+01
2.451424e+01
2.475840e+01
2.494987e+01
2.514011e+01
2.534824e+01
2.555473e+01
2.573941e+01
2.589717e+01
2.603085e+01
2.612803e+01
2.618593e+01
2.622505e+01
2.626802e+01
2.632191e+01
2.638069e+01
2.643631e+01
2.648459e+01
2.652386e+01
2.655373e+01
2.657387e+01
2.658404e+01
1.949678e+01
1.965316e+01
1.994312e+01
2.032533e+01
2.074657e+01
2.114773e+01
2.148914e+01
2.185668e+01
2.261727e+01
2.396628e+01
2.504617e+01
2.555876e+01
2.576770e+01
2.579406e+01
2.571339e+01
2.558950e+01
2.544821e+01
2.534710e+01
2.539679e+01
2.561601e+01
2.583068e+01
2.594841e+01
2.601274e+01
2.606486e+01
2.611006e+01
2.614119e+01
2.615476e+01
2.615306e+01
2.614173e+01
2.612699e+01
2.611410e+01
2.610673e+01
</DataArray>
<DataArray type='Float32' Name='dTdx' Format='ascii'> 
1.426566e-02
4.173180e-02
6.613461e-02
8.586420e-02
9.993792e-02
1.082053e-01
1.114818e-01
1.115265e-01
1.107509e-01
1.115713e-01
1.154450e-01
1.219163e-01
1.284366e-01
1.317579e-01
1.304211e-01
1.262952e-01
1.238434e-01
1.278752e-01
1.412345e-01
1.634972e-01
1.911966e-01
2.190452e-01
2.414083e-01
2.547570e-01
2.596936e-01
2.588743e-01
2.535742e-01
2.439364e-01
2.311952e-01
2.112142e-01
1.621135e-01
6.305659e-02
3.518698e-02
1.031627e-01
1.642408e-01
2.147880e-01
2.525439e-01
2.770322e-01
2.898057e-01
2.943727e-01
2.955980e-01
2.984253e-01
3.060145e-01
3.179069e-01
3.296157e-01
3.351463e-01
3.317442e-01
3.231797e-01
3.187450e-01
3.289252e-01
3.605169e-01
4.136638e-01
4.820438e-01
5.551071e-01
6.208267e-01
6.703320e-01
7.022268e-01
7.195957e-01
7.236010e-01
7.135443e-01
6.919815e-01
6.466128e-01
5.074331e-01
2.003070e-01
4.310121e-02
1.265885e-01
2.023277e-01
2.663869e-01
3.164197e-01
3.519041e-01
3.741612e-01
3.861409e-01
3.918880e-01
3.955937e-01
4.002798e-01
4.065036e-01
4.119745e-01
4.130907e-01
4.081934e-01
4.003417e-01
3.973234e-01
4.087955e-01
4.423268e-01
5.005652e-01
5.807707e-01
6.759090e-01
7.761525e-01
8.718630e-01
9.571499e-01
1.029158e+00
1.084113e+00
1.117396e+00
1.129503e+00
1.098889e+00
8.960967e-01
3.626513e-01
4.771381e-02
1.396306e-01
2.217467e-01
2.896816e-01
3.414615e-01
3.773318e-01
3.991709e-01
4.098313e-01
4.125718e-01
4.105646e-01
4.063941e-01
4.015677e-01
3.962863e-01
3.898792e-01
3.820511e-01
3.743758e-01
3.710120e-01
3.780484e-01
4.018491e-01
4.474027e-01
5.173989e-01
6.118392e-01
7.278036e-01
8.599971e-01
1.002016e+00
1.146451e+00
1.283685e+00
1.402978e+00
1.498826e+00
1.536775e+00
1.313729e+00
5.474882e-01
6.005758e-02
1.742509e-01
2.721853e-01
3.473719e-01
3.979330e-01
4.258210e-01
4.352356e-01
4.310806e-01
4.179540e-01
3.997223e-01
3.794469e-01
3.593766e-01
3.408864e-01
3.244919e-01
3.101823e-01
2.981498e-01
2.896685e-01
2.876861e-01
2.968427e-01
3.229614e-01
3.722440e-01
4.503447e-01
5.613884e-01
7.071203e-01
8.861691e-01
1.093046e+00
1.317156e+00
1.544094e+00
1.761500e+00
1.917227e+00
1.722071e+00
7.386703e-01
8.264194e-02
2.378751e-01
3.657671e-01
4.561255e-01
5.070529e-01
5.232251e-01
5.128007e-01
4.845880e-01
4.463120e-01
4.039847e-01
3.619393e-01
3.230589e-01
2.889457e-01
2.600407e-01
2.358445e-01
2.154228e-01
1.982665e-01
1.852881e-01
1.795319e-01
1.863191e-01
2.128665e-01
2.676441e-01
3.596202e-01
4.972505e-01
6.868969e-01
9.305530e-01
1.223525e+00
1.554273e+00
1.907316e+00
2.209023e+00
2.077313e+00
9.131997e-01
1.126721e-01
3.222275e-01
4.892308e-01
5.989037e-01
6.500359e-01
6.515575e-01
6.171416e-01
5.606856e-01
4.938037e-01
4.250328e-01
3.599918e-01
3.018844e-01
2.520289e-01
2.102991e-01
1.754991e-01
1.458521e-01
1.197993e-01
9.698467e-02
7.906518e-02
7.012714e-02
7.674781e-02
1.079420e-01
1.750854e-01
2.914838e-01
4.709896e-01
7.253146e-01
1.060544e+00
1.474780e+00
1.954968e+00
2.402943e+00
2.345236e+00
1.049140e+00
1.472647e-01
4.186430e-01
6.282948e-01
7.565289e-01
8.042023e-01
7.864715e-01
7.241482e-01
6.371213e-01
5.411071e-01
4.468949e-01
3.608831e-01
2.860818e-01
2.231333e-01
1.711133e-01
1.280769e-01
9.157449e-02
5.936127e-02
3.019510e-02
4.509829e-03
-1.508626e-02
-2.339601e-02
-1.212457e-02
3.076312e-02
1.214342e-01
2.795957e-01
5.262975e-01
8.801972e-01
1.353163e+00
1.937954e+00
2.508153e+00
2.509737e+00
1.132807e+00
1.843002e-01
5.209992e-01
7.735512e-01
9.173470e-01
9.566191e-01
9.144098e-01
8.200781e-01
7.003374e-01
5.751581e-01
4.572279e-01
3.531765e-01
2.653210e-01
1.932655e-01
1.350460e-01
8.783534e-02
4.850225e-02
1.421316e-02
-1.700937e-02
-4.580975e-02
-7.099549e-02
-8.888303e-02
-9.237007e-02
-6.971553e-02
-3.367966e-03
1.304290e-01
3.604777e-01
7.174550e-01
1.227656e+00
1.888754e+00
2.542036e+00
2.573232e+00
1.162190e+00
2.216031e-01
6.235992e-01
9.177558e-01
1.074456e+00
1.101580e+00
1.030742e+00
9.008937e-01
7.464662e-01
5.920051e-01
4.518973e-01
3.325917e-01
2.353026e-01
1.582440e-01
9.811656e-02
5.099334e-02
1.294191e-02
-1.949110e-02
-4.895919e-02
-7.702268e-02
-1.036741e-01
-1.265471e-01
-1.397200e-01
-1.320940e-01
-8.559953e-02
2.613568e-02
2.378326e-01
5.902589e-01
1.121700e+00
1.829892e+00
2.521855e+00
2.551013e+00
1.145107e+00
2.568591e-01
7.209178e-01
1.055078e+00
1.223799e+00
1.237263e+00
1.135351e+00
9.673989e-01
7.766165e-01
5.927210e-01
4.318031e-01
2.998097e-01
1.964478e-01
1.181447e-01
5.992160e-02
1.651125e-02
-1.694712e-02
-4.456440e-02
-6.960140e-02
-9.433233e-02
-1.196211e-01
-1.440717e-01
-1.626807e-01
-1.649622e-01
-1.327129e-01
-3.791631e-02
1.583673e-01
5.042833e-01
1.045376e+00
1.772687e+00
2.461429e+00
2.463772e+00
1.094073e+00
2.882996e-01
8.090173e-01
1.181914e+00
1.363591e+00
1.363928e+00
1.230072e+00
1.022315e+00
7.938036e-01
5.803161e-01
3.998756e-01
2.576303e-01
1.512886e-01
7.500732e-02
2.175683e-02
-1.527211e-02
-4.193429e-02
-6.297255e-02
-8.212873e-02
-1.021475e-01
-1.244211e-01
-1.481344e-01
-1.688410e-01
-1.764469e-01
-1.527005e-01
-6.857175e-02
1.175436e-01
4.579338e-01
9.994370e-01
1.720232e+00
2.371117e+00
2.331709e+00
1.021465e+00
3.155396e-01
8.868973e-01
1.297196e+00
1.493491e+00
1.482484e+00
1.317056e+00
1.068633e+00
8.014088e-01
5.582851e-01
3.596202e-01
2.094648e-01
1.029166e-01
3.130792e-02
-1.478153e-02
-4.380955e-02
-6.259068e-02
-7.638688e-02
-8.923250e-02
-1.040765e-01
-1.225066e-01
-1.439175e-01
-1.640557e-01
-1.729393e-01
-1.522256e-01
-7.234979e-02
1.094081e-01
4.459080e-01
9.792712e-01
1.671088e+00
2.258619e+00
2.171370e+00
9.370009e-01
3.397042e-01
9.566090e-01
1.402162e+00
1.613994e+00
1.593612e+00
1.397731e+00
1.108586e+00
8.023079e-01
5.299291e-01
3.145330e-01
1.587418e-01
5.435407e-02
-1.067408e-02
-4.837640e-02
-6.882063e-02
-7.963175e-02
-8.639553e-02
-9.321069e-02
-1.029705e-01
-1.171653e-01
-1.350832e-01
-1.523522e-01
-1.588564e-01
-1.361312e-01
-5.458483e-02
1.279489e-01
4.612774e-01
9.778217e-01
1.621971e+00
2.129562e+00
1.994819e+00
8.472989e-01
3.625537e-01
1.021941e+00
1.499919e+00
1.726470e+00
1.697689e+00
1.472514e+00
1.143278e+00
7.985263e-01
4.981002e-01
2.679206e-01