<VTKFile type='UnstructuredGrid' version='0.1' byte_order='BigEndian'> 
<UnstructuredGrid> 
<Piece NumberOfPoints='  4225 ' NumberOfCells='  4096 '> 
<Points> 
<DataArray type='Float32' NumberOfComponents='3' Format='ascii'> 
0.000000e+00 0.000000e+00 0.000000e+00 
4.687500e+04 0.000000e+00 0.000000e+00 
9.375000e+04 0.000000e+00 0.000000e+00 
1.406250e+05 0.000000e+00 0.000000e+00 
1.875000e+05 0.000000e+00 0.000000e+00 
2.343750e+05 0.000000e+00 0.000000e+00 
2.812500e+05 0.000000e+00 0.000000e+00 
3.281250e+05 0.000000e+00 0.000000e+00 
3.750000e+05 0.000000e+00 0.000000e+00 
4.218750e+05 0.000000e+00 0.000000e+00 
4.687500e+05 0.000000e+00 0.000000e+00 
5.156250e+05 0.000000e+00 0.000000e+00 
5.625000e+05 0.000000e+00 0.000000e+00 
6.093750e+05 0.000000e+00 0.000000e+00 
6.562500e+05 0.000000e+00 0.000000e+00 
7.031250e+05 0.000000e+00 0.000000e+00 
7.500000e+05 0.000000e+00 0.000000e+00 
7.968750e+05 0.000000e+00 0.000000e+00 
8.437500e+05 0.000000e+00 0.000000e+00 
8.906250e+05 0.000000e+00 0.000000e+00 
9.375000e+05 0.000000e+00 0.000000e+00 
9.843750e+05 0.000000e+00 0.000000e+00 
1.031250e+06 0.000000e+00 0.000000e+00 
1.078125e+06 0.000000e+00 0.000000e+00 
1.125000e+06 0.000000e+00 0.000000e+00 
1.171875e+06 0.000000e+00 0.000000e+00 
1.218750e+06 0.000000e+00 0.000000e+00 
1.265625e+06 0.000000e+00 0.000000e+00 
1.312500e+06 0.000000e+00 0.000000e+00 
1.359375e+06 0.000000e+00 0.000000e+00 
1.406250e+06 0.000000e+00 0.000000e+00 
1.453125e+06 0.000000e+00 0.000000e+00 
1.500000e+06 0.000000e+00 0.000000e+00 
1.546875e+06 0.000000e+00 0.000000e+00 
1.593750e+06 0.000000e+00 0.000000e+00 
1.640625e+06 0.000000e+00 0.000000e+00 
1.687500e+06 0.000000e+00 0.000000e+00 
1.734375e+06 0.000000e+00 0.000000e+00 
1.781250e+06 0.000000e+00 0.000000e+00 
1.828125e+06 0.000000e+00 0.000000e+00 
1.875000e+06 0.000000e+00 0.000000e+00 
1.921875e+06 0.000000e+00 0.000000e+00 
1.968750e+06 0.000000e+00 0.000000e+00 
2.015625e+06 0.000000e+00 0.000000e+00 
2.062500e+06 0.000000e+00 0.000000e+00 
2.109375e+06 0.000000e+00 0.000000e+00 
2.156250e+06 0.000000e+00 0.000000e+00 
2.203125e+06 0.000000e+00 0.000000e+00 
2.250000e+06 0.000000e+00 0.000000e+00 
2.296875e+06 0.000000e+00 0.000000e+00 
2.343750e+06 0.000000e+00 0.000000e+00 
2.390625e+06 0.000000e+00 0.000000e+00 
2.437500e+06 0.000000e+00 0.000000e+00 
2.484375e+06 0.000000e+00 0.000000e+00 
2.531250e+06 0.000000e+00 0.000000e+00 
2.578125e+06 0.000000e+00 0.000000e+00 
2.625000e+06 0.000000e+00 0.000000e+00 
2.671875e+06 0.000000e+00 0.000000e+00 
2.718750e+06 0.000000e+00 0.000000e+00 
2.765625e+06 0.000000e+00 0.000000e+00 
2.812500e+06 0.000000e+00 0.000000e+00 
2.859375e+06 0.000000e+00 0.000000e+00 
2.906250e+06 0.000000e+00 0.000000e+00 
2.953125e+06 0.000000e+00 0.000000e+00 
3.000000e+06 0.000000e+00 0.000000e+00 
0.000000e+00 4.687500e+04 0.000000e+00 
4.687500e+04 4.687500e+04 0.000000e+00 
9.375000e+04 4.687500e+04 0.000000e+00 
1.406250e+05 4.687500e+04 0.000000e+00 
1.875000e+05 4.687500e+04 0.000000e+00 
2.343750e+05 4.687500e+04 0.000000e+00 
2.812500e+05 4.687500e+04 0.000000e+00 
3.281250e+05 4.687500e+04 0.000000e+00 
3.750000e+05 4.687500e+04 0.000000e+00 
4.218750e+05 4.687500e+04 0.000000e+00 
4.687500e+05 4.687500e+04 0.000000e+00 
5.156250e+05 4.687500e+04 0.000000e+00 
5.625000e+05 4.687500e+04 0.000000e+00 
6.093750e+05 4.687500e+04 0.000000e+00 
6.562500e+05 4.687500e+04 0.000000e+00 
7.031250e+05 4.687500e+04 0.000000e+00 
7.500000e+05 4.687500e+04 0.000000e+00 
7.968750e+05 4.687500e+04 0.000000e+00 
8.437500e+05 4.687500e+04 0.000000e+00 
8.906250e+05 4.687500e+04 0.000000e+00 
9.375000e+05 4.687500e+04 0.000000e+00 
9.843750e+05 4.687500e+04 0.000000e+00 
1.031250e+06 4.687500e+04 0.000000e+00 
1.078125e+06 4.687500e+04 0.000000e+00 
1.125000e+06 4.687500e+04 0.000000e+00 
1.171875e+06 4.687500e+04 0.000000e+00 
1.218750e+06 4.687500e+04 0.000000e+00 
1.265625e+06 4.687500e+04 0.000000e+00 
1.312500e+06 4.687500e+04 0.000000e+00 
1.359375e+06 4.687500e+04 0.000000e+00 
1.406250e+06 4.687500e+04 0.000000e+00 
1.453125e+06 4.687500e+04 0.000000e+00 
1.500000e+06 4.687500e+04 0.000000e+00 
1.546875e+06 4.687500e+04 0.000000e+00 
1.593750e+06 4.687500e+04 0.000000e+00 
1.640625e+06 4.687500e+04 0.000000e+00 
1.687500e+06 4.687500e+04 0.000000e+00 
1.734375e+06 4.687500e+04 0.000000e+00 
1.781250e+06 4.687500e+04 0.000000e+00 
1.828125e+06 4.687500e+04 0.000000e+00 
1.875000e+06 4.687500e+04 0.000000e+00 
1.921875e+06 4.687500e+04 0.000000e+00 
1.968750e+06 4.687500e+04 0.000000e+00 
2.015625e+06 4.687500e+04 0.000000e+00 
2.062500e+06 4.687500e+04 0.000000e+00 
2.109375e+06 4.687500e+04 0.000000e+00 
2.156250e+06 4.687500e+04 0.000000e+00 
2.203125e+06 4.687500e+04 0.000000e+00 
2.250000e+06 4.687500e+04 0.000000e+00 
2.296875e+06 4.687500e+04 0.000000e+00 
2.343750e+06 4.687500e+04 0.000000e+00 
2.390625e+06 4.687500e+04 0.000000e+00 
2.437500e+06 4.687500e+04 0.000000e+00 
2.484375e+06 4.687500e+04 0.000000e+00 
2.531250e+06 4.687500e+04 0.000000e+00 
2.578125e+06 4.687500e+04 0.000000e+00 
2.625000e+06 4.687500e+04 0.000000e+00 
2.671875e+06 4.687500e+04 0.000000e+00 
2.718750e+06 4.687500e+04 0.000000e+00 
2.765625e+06 4.687500e+04 0.000000e+00 
2.812500e+06 4.687500e+04 0.000000e+00 
2.859375e+06 4.687500e+04 0.000000e+00 
2.906250e+06 4.687500e+04 0.000000e+00 
2.953125e+06 4.687500e+04 0.000000e+00 
3.000000e+06 4.687500e+04 0.000000e+00 
0.000000e+00 9.375000e+04 0.000000e+00 
4.687500e+04 9.375000e+04 0.000000e+00 
9.375000e+04 9.375000e+04 0.000000e+00 
1.406250e+05 9.375000e+04 0.000000e+00 
1.875000e+05 9.375000e+04 0.000000e+00 
2.343750e+05 9.375000e+04 0.000000e+00 
2.812500e+05 9.375000e+04 0.000000e+00 
3.281250e+05 9.375000e+04 0.000000e+00 
3.750000e+05 9.375000e+04 0.000000e+00 
4.218750e+05 9.375000e+04 0.000000e+00 
4.687500e+05 9.375000e+04 0.000000e+00 
5.156250e+05 9.375000e+04 0.000000e+00 
5.625000e+05 9.375000e+04 0.000000e+00 
6.093750e+05 9.375000e+04 0.000000e+00 
6.562500e+05 9.375000e+04 0.000000e+00 
7.031250e+05 9.375000e+04 0.000000e+00 
7.500000e+05 9.375000e+04 0.000000e+00 
7.968750e+05 9.375000e+04 0.000000e+00 
8.437500e+05 9.375000e+04 0.000000e+00 
8.906250e+05 9.375000e+04 0.000000e+00 
9.375000e+05 9.375000e+04 0.000000e+00 
9.843750e+05 9.375000e+04 0.000000e+00 
1.031250e+06 9.375000e+04 0.000000e+00 
1.078125e+06 9.375000e+04 0.000000e+00 
1.125000e+06 9.375000e+04 0.000000e+00 
1.171875e+06 9.375000e+04 0.000000e+00 
1.218750e+06 9.375000e+04 0.000000e+00 
1.265625e+06 9.375000e+04 0.000000e+00 
1.312500e+06 9.375000e+04 0.000000e+00 
1.359375e+06 9.375000e+04 0.000000e+00 
1.406250e+06 9.375000e+04 0.000000e+00 
1.453125e+06 9.375000e+04 0.000000e+00 
1.500000e+06 9.375000e+04 0.000000e+00 
1.546875e+06 9.375000e+04 0.000000e+00 
1.593750e+06 9.375000e+04 0.000000e+00 
1.640625e+06 9.375000e+04 0.000000e+00 
1.687500e+06 9.375000e+04 0.000000e+00 
1.734375e+06 9.375000e+04 0.000000e+00 
1.781250e+06 9.375000e+04 0.000000e+00 
1.828125e+06 9.375000e+04 0.000000e+00 
1.875000e+06 9.375000e+04 0.000000e+00 
1.921875e+06 9.375000e+04 0.000000e+00 
1.968750e+06 9.375000e+04 0.000000e+00 
2.015625e+06 9.375000e+04 0.000000e+00 
2.062500e+06 9.375000e+04 0.000000e+00 
2.109375e+06 9.375000e+04 0.000000e+00 
2.156250e+06 9.375000e+04 0.000000e+00 
2.203125e+06 9.375000e+04 0.000000e+00 
2.250000e+06 9.375000e+04 0.000000e+00 
2.296875e+06 9.375000e+04 0.000000e+00 
2.343750e+06 9.375000e+04 0.000000e+00 
2.390625e+06 9.375000e+04 0.000000e+00 
2.437500e+06 9.375000e+04 0.000000e+00 
2.484375e+06 9.375000e+04 0.000000e+00 
2.531250e+06 9.375000e+04 0.000000e+00 
2.578125e+06 9.375000e+04 0.000000e+00 
2.625000e+06 9.375000e+04 0.000000e+00 
2.671875e+06 9.375000e+04 0.000000e+00 
2.718750e+06 9.375000e+04 0.000000e+00 
2.765625e+06 9.375000e+04 0.000000e+00 
2.812500e+06 9.375000e+04 0.000000e+00 
2.859375e+06 9.375000e+04 0.000000e+00 
2.906250e+06 9.375000e+04 0.000000e+00 
2.953125e+06 9.375000e+04 0.000000e+00 
3.000000e+06 9.375000e+04 0.000000e+00 
0.000000e+00 1.406250e+05 0.000000e+00 
4.687500e+04 1.406250e+05 0.000000e+00 
9.375000e+04 1.406250e+05 0.000000e+00 
1.406250e+05 1.406250e+05 0.000000e+00 
1.875000e+05 1.406250e+05 0.000000e+00 
2.343750e+05 1.406250e+05 0.000000e+00 
2.812500e+05 1.406250e+05 0.000000e+00 
3.281250e+05 1.406250e+05 0.000000e+00 
3.750000e+05 1.406250e+05 0.000000e+00 
4.218750e+05 1.406250e+05 0.000000e+00 
4.687500e+05 1.406250e+05 0.000000e+00 
5.156250e+05 1.406250e+05 0.000000e+00 
5.625000e+05 1.406250e+05 0.000000e+00 
6.093750e+05 1.406250e+05 0.000000e+00 
6.562500e+05 1.406250e+05 0.000000e+00 
7.031250e+05 1.406250e+05 0.000000e+00 
7.500000e+05 1.406250e+05 0.000000e+00 
7.968750e+05 1.406250e+05 0.000000e+00 
8.437500e+05 1.406250e+05 0.000000e+00 
8.906250e+05 1.406250e+05 0.000000e+00 
9.375000e+05 1.406250e+05 0.000000e+00 
9.843750e+05 1.406250e+05 0.000000e+00 
1.031250e+06 1.406250e+05 0.000000e+00 
1.078125e+06 1.406250e+05 0.000000e+00 
1.125000e+06 1.406250e+05 0.000000e+00 
1.171875e+06 1.406250e+05 0.000000e+00 
1.218750e+06 1.406250e+05 0.000000e+00 
1.265625e+06 1.406250e+05 0.000000e+00 
1.312500e+06 1.406250e+05 0.000000e+00 
1.359375e+06 1.406250e+05 0.000000e+00 
1.406250e+06 1.406250e+05 0.000000e+00 
1.453125e+06 1.406250e+05 0.000000e+00 
1.500000e+06 1.406250e+05 0.000000e+00 
1.546875e+06 1.406250e+05 0.000000e+00 
1.593750e+06 1.406250e+05 0.000000e+00 
1.640625e+06 1.406250e+05 0.000000e+00 
1.687500e+06 1.406250e+05 0.000000e+00 
1.734375e+06 1.406250e+05 0.000000e+00 
1.781250e+06 1.406250e+05 0.000000e+00 
1.828125e+06 1.406250e+05 0.000000e+00 
1.875000e+06 1.406250e+05 0.000000e+00 
1.921875e+06 1.406250e+05 0.000000e+00 
1.968750e+06 1.406250e+05 0.000000e+00 
2.015625e+06 1.406250e+05 0.000000e+00 
2.062500e+06 1.406250e+05 0.000000e+00 
2.109375e+06 1.406250e+05 0.000000e+00 
2.156250e+06 1.406250e+05 0.000000e+00 
2.203125e+06 1.406250e+05 0.000000e+00 
2.250000e+06 1.406250e+05 0.000000e+00 
[...]
<CellData Scalars='scalars'>
<DataArray type='Float32' Name='p' Format='ascii'> 
4.221955e+10
4.221915e+10
4.221831e+10
4.221702e+10
4.221528e+10
4.221309e+10
4.221049e+10
4.220751e+10
4.220417e+10
4.220052e+10
4.219660e+10
4.219246e+10
4.218812e+10
4.218364e+10
4.217905e+10
4.217438e+10
4.216967e+10
4.216493e+10
4.216020e+10
4.215548e+10
4.215080e+10
4.214616e+10
4.214159e+10
4.213707e+10
4.213261e+10
4.212823e+10
4.212390e+10
4.211965e+10
4.211545e+10
4.211130e+10
4.210721e+10
4.210316e+10
4.209914e+10
4.209514e+10
4.209116e+10
4.208719e+10
4.208321e+10
4.207921e+10
4.207519e+10
4.207113e+10
4.206702e+10
4.206284e+10
4.205859e+10
4.205426e+10
4.204983e+10
4.204530e+10
4.204065e+10
4.203590e+10
4.203102e+10
4.202604e+10
4.202095e+10
4.201576e+10
4.201051e+10
4.200521e+10
4.199991e+10
4.199467e+10
4.198955e+10
4.198464e+10
4.198004e+10
4.197589e+10
4.197232e+10
4.196947e+10
4.196748e+10
4.196646e+10
4.092269e+10
4.092227e+10
4.092142e+10
4.092011e+10
4.091835e+10
4.091616e+10
4.091355e+10
4.091056e+10
4.090723e+10
4.090360e+10
4.089971e+10
4.089560e+10
4.089132e+10
4.088690e+10
4.088238e+10
4.087779e+10
4.087317e+10
4.086853e+10
4.086390e+10
4.085930e+10
4.085474e+10
4.085023e+10
4.084578e+10
4.084139e+10
4.083706e+10
4.083281e+10
4.082861e+10
4.082448e+10
4.082041e+10
4.081639e+10
4.081242e+10
4.080849e+10
4.080459e+10
4.080071e+10
4.079684e+10
4.079298e+10
4.078911e+10
4.078522e+10
4.078131e+10
4.077735e+10
4.077334e+10
4.076927e+10
4.076512e+10
4.076089e+10
4.075656e+10
4.075213e+10
4.074760e+10
4.074295e+10
4.073818e+10
4.073330e+10
4.072832e+10
4.072325e+10
4.071811e+10
4.071292e+10
4.070775e+10
4.070262e+10
4.069762e+10
4.069283e+10
4.068835e+10
4.068431e+10
4.068083e+10
4.067805e+10
4.067611e+10
4.067511e+10
3.961843e+10
3.961800e+10
3.961712e+10
3.961579e+10
3.961401e+10
3.961179e+10
3.960918e+10
3.960620e+10
3.960288e+10
3.959929e+10
3.959545e+10
3.959142e+10
3.958723e+10
3.958292e+10
3.957854e+10
3.957411e+10
3.956966e+10
3.956521e+10
3.956078e+10
3.955640e+10
3.955206e+10
3.954778e+10
3.954356e+10
3.953941e+10
3.953533e+10
3.953131e+10
3.952736e+10
3.952347e+10
3.951964e+10
3.951586e+10
3.951212e+10
3.950841e+10
3.950474e+10
3.950108e+10
3.949743e+10
3.949378e+10
3.949012e+10
3.948644e+10
3.948273e+10
3.947897e+10
3.947516e+10
3.947129e+10
3.946734e+10
3.946330e+10
3.945917e+10
3.945494e+10
3.945060e+10
3.944615e+10
3.944158e+10
3.943691e+10
3.943214e+10
3.942727e+10
3.942234e+10
3.941738e+10
3.941241e+10
3.940751e+10
3.940272e+10
3.939814e+10
3.939386e+10
3.939001e+10
3.938669e+10
3.938404e+10
3.938219e+10
3.938123e+10
3.830776e+10
3.830731e+10
3.830640e+10
3.830504e+10
3.830323e+10
3.830099e+10
3.829836e+10
3.829537e+10
3.829208e+10
3.828853e+10
3.828475e+10
3.828081e+10
3.827675e+10
3.827259e+10
3.826838e+10
3.826415e+10
3.825993e+10
3.825573e+10
3.825157e+10
3.824746e+10
3.824342e+10
3.823945e+10
3.823554e+10
3.823172e+10
3.822796e+10
3.822427e+10
3.822065e+10
3.821709e+10
3.821358e+10
3.821012e+10
3.820670e+10
3.820331e+10
3.819994e+10
3.819659e+10
3.819324e+10
3.818989e+10
3.818652e+10
3.818312e+10
3.817970e+10
3.817622e+10
3.817269e+10
3.816910e+10
3.816542e+10
3.816166e+10
3.815781e+10
3.815386e+10
3.814980e+10
3.814563e+10
3.814134e+10
3.813695e+10
3.813247e+10
3.812789e+10
3.812325e+10
3.811858e+10
3.811391e+10
3.810929e+10
3.810480e+10
3.810050e+10
3.809648e+10
3.809287e+10
3.808976e+10
3.808728e+10
3.808555e+10
3.808465e+10
3.699198e+10
3.699151e+10
3.699057e+10
3.698916e+10
3.698730e+10
3.698502e+10
3.698235e+10
3.697935e+10
3.697606e+10
3.697253e+10
3.696882e+10
3.696496e+10
3.696101e+10
3.695701e+10
3.695299e+10
3.694897e+10
3.694499e+10
3.694106e+10
3.693719e+10
3.693340e+10
3.692969e+10
3.692606e+10
3.692252e+10
3.691906e+10
3.691567e+10
3.691236e+10
3.690912e+10
3.690594e+10
3.690281e+10
3.689973e+10
3.689668e+10
3.689366e+10
3.689066e+10
3.688767e+10
3.688468e+10
3.688168e+10
3.687867e+10
3.687562e+10
3.687254e+10
3.686941e+10
3.686622e+10
3.686296e+10
3.685963e+10
3.685621e+10
3.685270e+10
3.684909e+10
3.684537e+10
3.684155e+10
3.683761e+10
3.683357e+10
3.682944e+10
3.682522e+10
3.682093e+10
3.681661e+10
3.681229e+10
3.680802e+10
3.680387e+10
3.679989e+10
3.679619e+10
3.679285e+10
3.678999e+10
3.678771e+10
3.678612e+10
3.678529e+10
3.567234e+10
3.567185e+10
3.567086e+10
3.566940e+10
3.566747e+10
3.566513e+10
3.566241e+10
3.565936e+10
3.565604e+10
3.565252e+10
3.564883e+10
3.564504e+10
3.564119e+10
3.563733e+10
3.563347e+10
3.562966e+10
3.562591e+10
3.562224e+10
3.561866e+10
3.561518e+10
3.561181e+10
3.560853e+10
3.560535e+10
3.560226e+10
3.559926e+10
3.559634e+10
3.559350e+10
3.559071e+10
3.558798e+10
3.558530e+10
3.558265e+10
3.558003e+10
3.557743e+10
3.557484e+10
3.557224e+10
3.556963e+10
3.556700e+10
3.556434e+10
3.556165e+10
3.555890e+10
3.555609e+10
3.555322e+10
3.555027e+10
3.554724e+10
3.554411e+10
3.554088e+10
3.553756e+10
3.553412e+10
3.553058e+10
3.552694e+10
3.552320e+10
3.551938e+10
3.551550e+10
3.551157e+10
3.550765e+10
3.550377e+10
3.549999e+10
3.549638e+10
3.549302e+10
3.548999e+10
3.548740e+10
3.548533e+10
3.548389e+10
3.548314e+10
3.434981e+10
3.434930e+10
3.434826e+10
3.434673e+10
3.434473e+10
3.434231e+10
3.433951e+10
3.433640e+10
3.433304e+10
3.432949e+10
3.432582e+10
3.432207e+10
3.431830e+10
3.431454e+10
3.431083e+10
3.430719e+10
3.430365e+10
3.430022e+10
3.429691e+10
3.429372e+10
3.429065e+10
3.428770e+10
3.428486e+10
3.428213e+10
3.427950e+10
3.427696e+10
3.427450e+10
3.427210e+10
3.426977e+10
3.426748e+10
3.426523e+10
3.426301e+10
3.426081e+10
3.425862e+10
3.425642e+10
3.425421e+10
3.425198e+10
3.424972e+10
3.424742e+10
3.424508e+10
3.424267e+10
3.424021e+10
3.423766e+10
3.423504e+10
3.423232e+10
3.422951e+10
3.422660e+10
3.422359e+10
3.422047e+10
3.421726e+10
3.421395e+10
3.421055e+10
3.420710e+10
3.420360e+10
3.420010e+10
3.419664e+10
3.419326e+10
3.419003e+10
3.418703e+10
3.418433e+10
3.418201e+10
3.418017e+10
3.417889e+10
3.417822e+10
3.302506e+10
3.302451e+10
3.302343e+10
3.302183e+10
3.301975e+10
3.301724e+10
3.301436e+10
3.301119e+10
3.300778e+10
3.300420e+10
3.300053e+10
3.299681e+10
3.299310e+10
3.298943e+10
3.298584e+10
3.298236e+10
3.297901e+10
3.297579e+10
3.297271e+10
3.296977e+10
3.296698e+10
3.296432e+10
3.296179e+10
3.295939e+10
3.295709e+10
3.295489e+10
3.295278e+10
3.295075e+10
3.294878e+10
3.294686e+10
3.294499e+10
3.294315e+10
3.294133e+10
3.293952e+10
3.293771e+10
3.293589e+10
3.293405e+10
3.293219e+10
3.293028e+10
3.292834e+10
3.292634e+10
3.292427e+10
3.292214e+10
3.291993e+10
3.291763e+10
3.291524e+10
3.291276e+10
3.291018e+10
3.290750e+10
3.290472e+10
3.290186e+10
3.289891e+10
3.289590e+10
3.289284e+10
3.288978e+10
3.288674e+10
3.288377e+10
3.288094e+10
3.287830e+10
3.287593e+10
3.287390e+10
3.287229e+10
3.287117e+10
3.287059e+10
3.169847e+10
3.169790e+10
3.169677e+10
3.169510e+10
3.169295e+10
3.169036e+10
3.168742e+10
3.168418e+10
3.168073e+10
3.167714e+10
3.167347e+10
3.166978e+10
3.166613e+10
3.166256e+10
3.165909e+10
3.165575e+10
3.165256e+10
3.164953e+10
3.164666e+10
3.164395e+10
3.164140e+10
3.163900e+10
3.163674e+10
3.163461e+10
3.163261e+10
3.163071e+10
3.162891e+10
3.162719e+10
3.162555e+10
3.162397e+10
3.162243e+10
3.162093e+10
3.161946e+10
3.161800e+10
3.161655e+10
3.161509e+10
3.161362e+10
3.161213e+10
3.161060e+10
3.160904e+10
3.160742e+10
3.160575e+10
3.160402e+10
3.160221e+10
3.160032e+10
3.159835e+10
3.159629e+10
3.159414e+10
3.159189e+10
3.158955e+10
3.158713e+10
3.158462e+10
3.158205e+10
3.157944e+10
3.157681e+10
3.157420e+10
3.157165e+10
3.156921e+10
3.156694e+10
3.156490e+10
3.156316e+10
3.156177e+10
3.156081e+10
3.156031e+10
3.037029e+10
3.036970e+10
3.036853e+10
3.036681e+10
3.036459e+10
3.036195e+10
3.035895e+10
3.035568e+10
3.035221e+10
3.034862e+10
3.034498e+10
3.034134e+10
3.033777e+10
3.033429e+10
3.033095e+10
3.032775e+10
3.032472e+10
3.032187e+10
3.031919e+10
3.031668e+10
3.031434e+10
3.031217e+10
3.031014e+10
3.030826e+10
3.030650e+10
3.030486e+10
3.030333e+10
3.030188e+10
3.030052e+10
3.029922e+10
3.029798e+10
3.029678e+10
3.029561e+10
3.029446e+10
3.029333e+10
3.029220e+10
3.029106e+10
3.028990e+10
3.028872e+10
3.028751e+10
3.028625e+10
3.028495e+10
3.028358e+10
3.028216e+10
3.028066e+10
3.027909e+10
3.027743e+10
3.027569e+10
3.027386e+10
3.027194e+10
3.026994e+10
3.026787e+10
3.026573e+10
3.026355e+10
3.026134e+10
3.025915e+10
3.025700e+10
3.025495e+10
3.025304e+10
3.025132e+10
3.024986e+10
3.024869e+10
3.024788e+10
3.024746e+10
2.904067e+10
2.904006e+10
2.903886e+10
2.903710e+10
2.903485e+10
2.903217e+10
2.902914e+10
2.902586e+10
2.902240e+10
2.901884e+10
2.901526e+10
2.901171e+10
2.900824e+10
2.900488e+10
2.900167e+10
2.899863e+10
2.899577e+10
2.899308e+10
2.899059e+10
2.898827e+10
2.898612e+10
2.898415e+10
2.898232e+10
2.898065e+10
2.897910e+10
2.897768e+10
2.897636e+10
2.897515e+10
2.897401e+10
2.897295e+10
2.897196e+10
2.897101e+10
2.897010e+10
2.896922e+10
2.896836e+10
2.896751e+10
2.896666e+10
2.896580e+10
2.896493e+10
2.896403e+10
2.896309e+10
2.896212e+10
2.896110e+10
2.896002e+10
2.895888e+10
2.895767e+10
2.895639e+10
2.895503e+10
2.895359e+10
2.895208e+10
2.895048e+10
2.894881e+10
2.894709e+10
2.894531e+10
2.894351e+10
2.894172e+10
2.893996e+10
2.893827e+10
2.893671e+10
2.893530e+10
2.893410e+10
2.893315e+10
2.893249e+10
2.893215e+10
2.770972e+10
2.770911e+10
2.770789e+10
2.770611e+10
2.770383e+10
2.770114e+10
2.769812e+10
2.769486e+10
2.769145e+10
2.768796e+10
2.768446e+10
2.768102e+10
2.767768e+10
2.767447e+10
2.767143e+10
2.766855e+10
2.766586e+10
2.766336e+10
2.766104e+10
2.765890e+10
2.765693e+10
2.765513e+10
2.765349e+10
2.765199e+10
2.765063e+10
2.764939e+10
2.764825e+10
2.764722e+10
2.764628e+10
2.764541e+10
2.764462e+10
2.764387e+10
2.764318e+10
2.764252e+10
2.764189e+10
2.764127e+10
2.764067e+10
2.764006e+10
2.763945e+10
2.763882e+10
2.763817e+10
2.763749e+10
2.763677e+10
2.763600e+10
2.763518e+10
2.763430e+10
2.763336e+10
2.763235e+10
2.763127e+10
2.763012e+10
2.762889e+10
2.762761e+10
2.762626e+10
2.762487e+10
2.762345e+10
2.762203e+10
2.762063e+10
2.761930e+10
2.761805e+10
2.761694e+10
2.761599e+10
2.761525e+10
2.761472e+10
2.761446e+10
2.637754e+10
2.637692e+10
2.637569e+10
2.637391e+10
2.637164e+10
2.636896e+10
2.636598e+10
2.636277e+10
2.635944e+10
2.635605e+10
2.635268e+10
2.634939e+10
2.634621e+10
2.634317e+10
2.634030e+10
2.633761e+10
2.633510e+10
2.633278e+10
2.633064e+10
2.632868e+10
2.632689e+10
2.632525e+10
2.632377e+10
2.632243e+10
2.632122e+10
2.632012e+10
2.631914e+10
2.631826e+10
2.631747e+10
2.631676e+10
2.631612e+10
2.631555e+10
2.631502e+10
2.631454e+10
2.631409e+10
2.631367e+10
2.631327e+10
2.631287e+10
2.631248e+10
2.631208e+10
2.631167e+10
2.631123e+10
2.631077e+10
2.631027e+10
2.630973e+10
2.630915e+10
2.630850e+10
2.630780e+10
2.630704e+10
2.630622e+10
2.630533e+10
2.630438e+10
2.630338e+10
2.630234e+10
2.630127e+10
2.630020e+10
2.629914e+10
2.629812e+10
2.629718e+10
2.629634e+10
2.629563e+10
2.629507e+10
2.629468e+10
2.629448e+10
2.504419e+10
2.504357e+10
2.504234e+10
2.504057e+10
2.503833e+10
2.503570e+10
2.503278e+10
2.502966e+10
2.502644e+10
2.502319e+10
2.501998e+10
2.501686e+10
2.501386e+10
2.501102e+10
2.500835e+10
2.500586e+10
2.500355e+10
2.500142e+10
2.499946e+10
2.499767e+10
2.499604e+10
2.499456e+10
2.499323e+10
2.499202e+10
2.499094e+10
2.498998e+10
2.498912e+10
2.498836e+10
2.498769e+10
2.498710e+10
2.498659e+10
2.498614e+10
2.498575e+10
2.498540e+10
2.498510e+10
2.498483e+10
2.498459e+10
2.498436e+10
2.498415e+10
2.498393e+10
2.498372e+10
2.498349e+10
2.498325e+10
2.498298e+10
2.498267e+10
2.498233e+10
2.498195e+10
2.498152e+10
2.498104e+10
2.498050e+10
2.497991e+10
2.497926e+10
2.497857e+10
2.497785e+10
2.497709e+10
2.497633e+10
2.497558e+10
2.497486e+10
2.497419e+10
2.497360e+10
2.497310e+10
2.497271e+10
2.497244e+10
2.497230e+10
2.370972e+10
2.370911e+10
2.370790e+10
2.370616e+10
2.370396e+10
2.370140e+10
2.369857e+10
2.369558e+10
2.369250e+10
2.368942e+10
2.368639e+10
2.368347e+10
2.368069e+10
2.367806e+10
2.367561e+10
2.367333e+10
2.367122e+10
2.366928e+10
2.366751e+10
2.366589e+10
2.366441e+10
2.366308e+10
2.366188e+10
2.366080e+10
2.365983e+10
2.365897e+10
2.365822e+10
2.365755e+10
2.365698e+10
2.365649e+10
2.365607e+10
2.365571e+10
2.365542e+10
2.365518e+10
2.365499e+10
2.365484e+10
2.365472e+10
2.365462e+10
2.365455e+10
2.365448e+10
2.365442e+10
2.365436e+10
2.365430e+10
2.365421e+10
2.365411e+10
2.365398e+10
2.365381e+10
2.365361e+10
2.365336e+10
2.365307e+10
2.365273e+10
2.365236e+10
2.365194e+10
2.365149e+10
2.365101e+10
2.365053e+10
2.365005e+10
2.364960e+10
2.364918e+10
2.364881e+10
2.364851e+10
2.364827e+10
2.364811e+10
2.364803e+10
2.237419e+10
2.237359e+10
2.237241e+10
2.237071e+10
2.236858e+10
2.236611e+10
2.236340e+10
2.236055e+10
2.235765e+10
2.235476e+10
2.235194e+10
2.234924e+10
2.234669e+10
2.234429e+10
2.234206e+10
2.234000e+10
2.233810e+10
2.233636e+10
2.233477e+10
2.233331e+10
2.233199e+10
2.233079e+10
2.232971e+10
2.232874e+10
2.232788e+10
2.232711e+10
2.232644e+10
2.232586e+10
2.232536e+10
2.232493e+10
2.232458e+10
2.232430e+10
2.232408e+10
2.232392e+10
2.232381e+10
2.232374e+10
2.232371e+10
2.232372e+10
2.232375e+10
2.232379e+10
2.232386e+10
2.232393e+10
2.232400e+10
2.232406e+10
2.232412e+10
2.232415e+10
2.232416e+10
2.232415e+10
2.232410e+10
2.232402e+10
2.232390e+10
2.232375e+10
2.232356e+10
2.232335e+10
2.232312e+10
2.232289e+10
2.232265e+10
2.232243e+10
2.232223e+10
2.232207e+10
2.232194e+10
2.232184e+10
2.232177e+10
2.232174e+10
2.103762e+10
2.103704e+10
2.103590e+10
2.103426e+10
2.103221e+10
2.102986e+10
2.102729e+10
2.102461e+10
2.102189e+10
2.101922e+10
2.101663e+10
2.101417e+10
2.101186e+10
2.100970e+10
2.100770e+10
2.100586e+10
2.100417e+10
2.100263e+10
2.100121e+10
2.099992e+10
2.099874e+10
2.099767e+10
2.099670e+10
2.099583e+10
2.099506e+10
2.099437e+10
2.099377e+10
2.099325e+10
2.099280e+10
2.099244e+10
2.099214e+10
2.099191e+10
2.099174e+10
2.099163e+10
2.099157e+10
2.099156e+10
2.099160e+10
2.099167e+10
2.099178e+10
2.099191e+10
2.099206e+10
2.099223e+10
2.099241e+10
2.099259e+10
2.099276e+10
2.099293e+10
2.099308e+10
2.099322e+10
2.099333e+10
2.099342e+10
2.099348e+10
2.099352e+10
2.099353e+10
2.099352e+10
2.099351e+10
2.099348e+10
2.099346e+10
2.099344e+10
2.099344e+10
2.099345e+10
2.099347e+10
2.099349e+10
2.099351e+10
2.099353e+10
1.970005e+10
1.969949e+10
1.969839e+10
1.969683e+10
1.969488e+10
1.969265e+10
1.969025e+10
1.968775e+10
1.968525e+10
1.968280e+10
1.968045e+10
1.967824e+10
1.967617e+10
1.967426e+10
1.967250e+10
1.967088e+10
1.966940e+10
1.966804e+10
1.966679e+10
1.966565e+10
1.966461e+10
1.966367e+10
1.966281e+10
1.966203e+10
1.966133e+10
1.966071e+10
1.966017e+10
1.965970e+10
1.965930e+10
1.965897e+10
1.965871e+10
1.965851e+10
1.965838e+10
1.965830e+10
1.965828e+10
1.965831e+10
1.965839e+10
1.965851e+10
1.965866e+10
1.965885e+10
1.965907e+10
1.965930e+10
1.965956e+10
1.965982e+10
1.966009e+10
1.966035e+10
1.966061e+10
1.966086e+10
1.966110e+10
1.966133e+10
1.966153e+10
1.966173e+10
1.966190e+10
1.966207e+10
1.966223e+10
1.966238e+10
1.966254e+10
1.966270e+10
1.966287e+10
1.966303e+10
1.966318e+10
1.966331e+10
1.966341e+10
1.966346e+10
1.836149e+10
1.836095e+10
1.835991e+10
1.835843e+10
1.835660e+10
1.835451e+10
1.835228e+10
1.834998e+10
1.834770e+10
1.834549e+10
1.834339e+10
1.834143e+10
1.833961e+10
1.833794e+10
1.833641e+10
1.833501e+10
1.833372e+10
1.833255e+10
1.833147e+10
1.833048e+10
1.832957e+10
1.832873e+10
1.832797e+10
1.832727e+10
1.832665e+10
1.832609e+10
1.832559e+10
1.832516e+10
1.832480e+10
1.832450e+10
1.832427e+10
1.832409e+10
1.832398e+10
1.832392e+10
1.832392e+10
1.832398e+10
1.832408e+10
1.832422e+10
1.832441e+10
1.832463e+10
1.832489e+10
1.832517e+10
1.832547e+10
1.832579e+10
1.832612e+10
1.832645e+10
1.832679e+10
1.832713e+10
1.832747e+10
1.832780e+10
1.832812e+10
1.832843e+10
1.832874e+10
1.832905e+10
1.832935e+10
1.832966e+10
1.832997e+10
1.833028e+10
1.833059e+10
1.833089e+10
1.833115e+10
1.833137e+10
1.833153e+10
1.833162e+10
1.702195e+10
1.702144e+10
1.702046e+10
1.701907e+10
1.701736e+10
1.701543e+10
1.701338e+10
1.701129e+10
1.700923e+10
1.700726e+10
1.700541e+10
1.700370e+10
1.700213e+10
1.700070e+10
1.699939e+10
1.699820e+10
1.699711e+10
1.699611e+10
1.699519e+10
1.699433e+10
1.699354e+10
1.699281e+10
1.699214e+10
1.699152e+10
1.699096e+10
1.699045e+10
1.699000e+10
1.698961e+10
1.698927e+10
1.698900e+10
1.698878e+10
1.698862e+10
1.698851e+10
1.698847e+10
1.698848e+10
1.698854e+10
1.698865e+10
1.698881e+10
1.698901e+10
1.698925e+10
1.698952e+10
1.698983e+10
1.699016e+10
1.699051e+10
1.699088e+10
1.699126e+10
1.699165e+10
1.699205e+10
1.699246e+10
1.699286e+10
1.699327e+10
1.699368e+10
1.699410e+10
1.699452e+10
1.699494e+10
1.699537e+10
1.699581e+10
1.699625e+10
1.699668e+10
1.699708e+10
1.699744e+10
1.699774e+10
1.699795e+10
1.699807e+10
1.568145e+10
1.568097e+10
1.568005e+10
1.567875e+10
1.567717e+10
1.567540e+10
1.567354e+10
1.567166e+10
1.566983e+10
1.566811e+10
1.566650e+10
1.566504e+10
1.566371e+10
1.566250e+10
1.566141e+10
1.566042e+10
1.565951e+10
1.565867e+10
1.565789e+10
1.565717e+10
1.565649e+10
1.565586e+10
1.565527e+10
1.565472e+10
1.565422e+10
1.565376e+10
1.565335e+10
1.565298e+10
1.565267e+10
1.565241e+10
1.565221e+10
1.565205e+10
1.565196e+10
1.565191e+10
1.565192e+10
1.565198e+10
1.565209e+10
1.565225e+10
1.565245e+10
1.565269e+10
1.565297e+10
1.565329e+10
1.565363e+10
1.565399e+10
1.565438e+10
1.565479e+10
1.565522e+10
1.565565e+10
1.565610e+10
1.565656e+10
1.565703e+10
1.565751e+10
1.565801e+10
1.565852e+10
1.565904e+10
1.565957e+10
1.566011e+10
1.566065e+10
1.566118e+10
1.566168e+10
1.566212e+10
1.566248e+10
1.566274e+10
1.566287e+10
1.433997e+10
1.433952e+10
1.433867e+10
1.433748e+10
1.433603e+10
1.433442e+10
1.433275e+10
1.433108e+10
1.432948e+10
1.432799e+10
1.432663e+10
1.432540e+10
1.432429e+10
1.432330e+10
1.432241e+10
1.432160e+10
1.432086e+10
1.432018e+10
1.431954e+10
1.431893e+10
1.431836e+10
1.431782e+10
1.431731e+10
1.431682e+10
1.431638e+10
1.431596e+10
1.431559e+10
1.431525e+10
1.431496e+10
1.431472e+10
1.431452e+10
1.431437e+10
1.431427e+10
1.431423e+10
1.431423e+10
1.431429e+10
1.431439e+10
1.431454e+10
1.431473e+10
1.431496e+10
1.431524e+10
1.431554e+10
1.431588e+10
1.431625e+10
1.431664e+10
1.431705e+10
1.431749e+10
1.431795e+10
1.431842e+10
1.431892e+10
1.431943e+10
1.431996e+10
1.432052e+10
1.432109e+10
1.432169e+10
1.432230e+10
1.432293e+10
1.432355e+10
1.432416e+10
1.432473e+10
1.432524e+10
1.432565e+10
1.432594e+10
1.432610e+10
1.299752e+10
1.299711e+10
1.299633e+10
1.299524e+10
1.299392e+10
1.299248e+10
1.299099e+10
1.298953e+10
1.298815e+10
1.298689e+10
1.298575e+10
1.298474e+10
1.298385e+10
1.298306e+10
1.298236e+10
1.298172e+10
1.298114e+10
1.298059e+10
1.298008e+10
1.297958e+10
1.297911e+10
1.297865e+10
1.297821e+10
1.297779e+10
1.297740e+10
1.297702e+10
1.297668e+10
1.297637e+10
1.297610e+10
1.297587e+10
1.297568e+10
1.297554e+10
1.297544e+10
1.297539e+10
1.297539e+10
1.297543e+10
1.297552e+10
1.297565e+10
1.297583e+10
1.297604e+10
1.297630e+10
1.297659e+10
1.297691e+10
1.297727e+10
1.297765e+10
1.297806e+10
1.297850e+10
1.297896e+10
1.297944e+10
1.297995e+10
1.298049e+10
1.298106e+10
1.298165e+10
1.298228e+10
1.298293e+10
1.298361e+10
1.298430e+10
1.298499e+10
1.298566e+10
1.298629e+10
1.298685e+10
1.298730e+10
1.298763e+10
1.298780e+10
1.165410e+10
1.165372e+10
1.165301e+10
1.165202e+10
1.165084e+10
1.164956e+10
1.164825e+10
1.164699e+10
1.164582e+10
1.164477e+10
1.164385e+10
1.164305e+10
1.164235e+10
1.164175e+10
1.164122e+10
1.164074e+10
1.164030e+10
1.163988e+10
1.163948e+10
1.163909e+10
1.163870e+10
1.163832e+10
1.163795e+10
1.163759e+10
1.163724e+10
1.163691e+10
1.163660e+10
1.163632e+10
1.163607e+10
1.163585e+10
1.163567e+10
1.163553e+10
1.163543e+10
1.163537e+10
1.163536e+10
1.163539e+10
1.163546e+10
1.163558e+10
1.163573e+10
1.163593e+10
1.163616e+10
1.163642e+10
1.163673e+10
1.163706e+10
1.163742e+10
1.163781e+10
1.163824e+10
1.163869e+10
1.163917e+10
1.163969e+10
1.164024e+10
1.164083e+10
1.164145e+10
1.164211e+10
1.164280e+10
1.164352e+10
1.164426e+10
1.164501e+10
1.164573e+10
1.164640e+10